/*--------------------------------*- C++ -*----------------------------------*\
  =========                 |
  \\      /  F ield         | OpenFOAM: The Open Source CFD Toolbox
   \\    /   O peration     | Website:  https://openfoam.org
    \\  /    A nd           | Version:  7
     \\/     M anipulation  |
\*---------------------------------------------------------------------------*/
FoamFile
{
    version     2.0;
    format      ascii;
    class       volScalarField;
    location    "49.9";
    object      p;
}
// * * * * * * * * * * * * * * * * * * * * * * * * * * * * * * * * * * * * * //

dimensions      [0 2 -2 0 0 0 0];

internalField   nonuniform List<scalar> 
10000
(
1.19306e-07
6.41412e-06
2.56849e-05
5.01909e-05
7.56545e-05
9.82308e-05
0.000116714
0.000131127
0.000142696
0.000153163
0.000164092
0.000176398
0.000190108
0.0002043
0.000217142
0.000226076
0.000228048
0.00021973
0.0001978
0.000159276
0.000101734
2.34118e-05
-7.68117e-05
-0.000199532
-0.000345072
-0.000513772
-0.000706206
-0.000923344
-0.00116657
-0.00143749
-0.00173768
-0.00206828
-0.00242959
-0.00282069
-0.00323907
-0.00368029
-0.00413767
-0.00460207
-0.00506182
-0.00550304
-0.00590994
-0.0062653
-0.0065508
-0.00674785
-0.0068385
-0.0068063
-0.00663709
-0.00631966
-0.00584636
-0.00521371
-0.00442285
-0.00348028
-0.00239842
-0.00119461
0.000110012
0.00147892
0.00287484
0.00425741
0.00557847
0.00678694
0.00783083
0.00866015
0.00923023
0.0095054
0.00946303
0.00909654
0.00841107
0.00743925
0.00622239
0.00481725
0.00329095
0.00171243
0.000148296
-0.00134242
-0.00271248
-0.00392767
-0.00496716
-0.00582334
-0.0064995
-0.00700829
-0.0073694
-0.00760664
-0.00774526
-0.00780956
-0.00782116
-0.00779791
-0.00775368
-0.00769858
-0.00763962
-0.00758136
-0.00752664
-0.00747699
-0.00743303
-0.00739475
-0.0073617
-0.00733325
-0.00730892
-0.00728887
-0.00727435
-0.0072687
-6.19324e-06
-4.91919e-07
1.49559e-05
3.44111e-05
5.60261e-05
7.71887e-05
9.65673e-05
0.000113919
0.000129852
0.000145346
0.000161236
0.000177854
0.000194744
0.000210832
0.00022432
0.000232869
0.000233666
0.000224042
0.000200974
0.000161915
0.000104801
2.81682e-05
-6.88133e-05
-0.000186261
-0.000324771
-0.000484613
-0.000666314
-0.000870657
-0.00109928
-0.00135376
-0.00163588
-0.00194704
-0.00228794
-0.00265811
-0.00305552
-0.00347621
-0.00391416
-0.00436127
-0.00480742
-0.0052405
-0.00564626
-0.00600766
-0.00630659
-0.00652434
-0.00664236
-0.00664327
-0.00651166
-0.00623494
-0.00580403
-0.00521462
-0.00446861
-0.00357261
-0.00253583
-0.00137284
-0.000114298
0.00121336
0.00257649
0.00392974
0.00522491
0.0064113
0.00743719
0.00825268
0.00881301
0.00908228
0.00903745
0.00867169
0.00799428
0.00702865
0.00582503
0.00443965
0.00293905
0.00139255
-0.000132436
-0.00157564
-0.00288912
-0.00404315
-0.00502445
-0.00582299
-0.00644542
-0.00690913
-0.00723685
-0.00745347
-0.00758368
-0.00764991
-0.00767109
-0.00766224
-0.00763476
-0.00759687
-0.0075543
-0.00751089
-0.00746912
-0.00743047
-0.0073957
-0.0073651
-0.00733857
-0.00731582
-0.00729658
-0.00728091
-0.00726967
-0.00726351
-2.46871e-05
-1.4737e-05
7.28074e-07
2.06821e-05
4.25348e-05
6.4077e-05
8.41895e-05
0.000102791
0.000120605
0.000138644
0.000157668
0.000177844
0.000198657
0.000218694
0.000235987
0.00024808
0.000252236
0.00024535
0.000224762
0.000188008
0.000133208
5.91664e-05
-3.46885e-05
-0.000148726
-0.000282547
-0.000436316
-0.000610683
-0.000806935
-0.00102707
-0.00127353
-0.0015489
-0.00185544
-0.00219477
-0.00256751
-0.0029731
-0.00340932
-0.00387156
-0.00435205
-0.0048394
-0.00531861
-0.00577201
-0.0061813
-0.00652701
-0.00678913
-0.00694829
-0.00698673
-0.00688917
-0.00664349
-0.00624171
-0.00568058
-0.00496031
-0.00408359
-0.0030575
-0.00190659
-0.00065542
0.000666514
0.00202445
0.00337657
0.00467555
0.00587052
0.00690929
0.00774113
0.00832012
0.00860889
0.00858262
0.00823233
0.00756613
0.00661088
0.00541242
0.00402264
0.00252088
0.000974356
-0.000547224
-0.001984
-0.00328996
-0.00442872
-0.00537854
-0.006145
-0.00672793
-0.00714467
-0.00742128
-0.00758638
-0.00766828
-0.00769267
-0.00768066
-0.00764804
-0.00760561
-0.00756003
-0.00751502
-0.00747257
-0.00743372
-0.00739892
-0.00736832
-0.00734182
-0.00731913
-0.00729979
-0.00728331
-0.00726946
-0.00725848
-0.00724786
-5.06699e-05
-3.54998e-05
-1.83102e-05
2.79372e-06
2.5274e-05
4.71317e-05
6.76135e-05
8.70633e-05
0.000106595
0.000127483
0.000150568
0.000175903
0.000202633
0.000229099
0.000252961
0.000271417
0.000281391
0.000279731
0.000263585
0.000230556
0.000178968
0.000107964
1.73552e-05
-9.26959e-05
-0.000221995
-0.000370842
-0.000540374
-0.000732751
-0.000951159
-0.00119958
-0.00148249
-0.0018045
-0.00216979
-0.002581
-0.00303807
-0.00353736
-0.00407136
-0.00462884
-0.00519509
-0.00575235
-0.00628066
-0.00675933
-0.00716775
-0.00748586
-0.00769489
-0.00777806
-0.00772118
-0.00751307
-0.00714585
-0.00661511
-0.00592053
-0.00506793
-0.00407308
-0.00295077
-0.00172285
-0.000417775
0.000929638
0.0022786
0.00358326
0.00479375
0.00585834
0.00672598
0.00734959
0.00768986
0.0077193
0.00742576
0.00681458
0.00591025
0.00475533
0.00340547
0.00193212
0.000405487
-0.00110161
-0.00252388
-0.0038136
-0.00493295
-0.00586245
-0.00659099
-0.00713578
-0.00750991
-0.00773738
-0.0078484
-0.00787425
-0.00784404
-0.00778238
-0.00770781
-0.00763242
-0.00756299
-0.00750236
-0.00745098
-0.00740807
-0.00737247
-0.00734306
-0.00731884
-0.00729889
-0.0072823
-0.00726805
-0.00725547
-0.00724453
-0.00722767
-8.24355e-05
-6.15868e-05
-4.21157e-05
-1.94811e-05
3.59835e-06
2.53429e-05
4.55647e-05
6.53275e-05
8.63965e-05
0.000110484
0.000138595
0.000170666
0.000205517
0.000241001
0.000274224
0.000301837
0.000320291
0.00032609
0.000316174
0.000288194
0.000240607
0.000172789
8.47125e-05
-2.35243e-05
-0.000152244
-0.000302764
-0.000477832
-0.000681855
-0.000920886
-0.00120222
-0.00153342
-0.00192082
-0.00236803
-0.002875
-0.00343755
-0.00404737
-0.00469233
-0.00535712
-0.00602389
-0.00667306
-0.00728414
-0.00783643
-0.00830982
-0.00868533
-0.00894572
-0.00907598
-0.00906356
-0.00889825
-0.00857194
-0.00807933
-0.0074212
-0.00660979
-0.00565505
-0.00457123
-0.00337796
-0.00210119
-0.000773184
0.000567836
0.00187844
0.00311095
0.0042151
0.00514027
0.00583859
0.00626864
0.00639945
0.00621433
0.00571376
0.00491699
0.00386177
0.0026022
0.00120565
-0.00025593
-0.00170992
-0.00308949
-0.00434864
-0.00543804
-0.0063422
-0.00705282
-0.00757088
-0.00791544
-0.00810936
-0.00818053
-0.00816024
-0.00807941
-0.00796579
-0.00784165
-0.0077225
-0.00761726
-0.0075294
-0.00745877
-0.00740331
-0.00736036
-0.00732734
-0.007302
-0.00728247
-0.00726705
-0.00725406
-0.00724217
-0.00723097
-0.00720782
-0.00011919
-9.25624e-05
-7.07161e-05
-4.67246e-05
-2.3631e-05
-2.8632e-06
1.62412e-05
3.57639e-05
5.83368e-05
8.62103e-05
0.00012054
0.000161089
0.000206206
0.000253083
0.000298089
0.000337155
0.000366141
0.000380996
0.00037845
0.00035587
0.000311798
0.0002454
0.000156111
4.29525e-05
-9.62171e-05
-0.000265378
-0.000470754
-0.000720701
-0.0010248
-0.00139221
-0.00182984
-0.00234096
-0.0029244
-0.00357439
-0.00428096
-0.00503052
-0.00580689
-0.00659204
-0.00736681
-0.00811143
-0.00880602
-0.00943118
-0.00996845
-0.0104008
-0.0107131
-0.0108924
-0.0109277
-0.01081
-0.0105315
-0.0100881
-0.00948348
-0.0087271
-0.00782742
-0.00679683
-0.00565284
-0.00441847
-0.00312241
-0.001799
-0.000487809
0.000767011
0.00191808
0.00291668
0.00371549
0.00427157
0.00455032
0.00452934
0.00420218
0.00358037
0.00269417
0.0015915
0.000334376
-0.00100718
-0.00236114
-0.0036609
-0.00485285
-0.00589323
-0.00675835
-0.00743839
-0.00793576
-0.00826196
-0.00843791
-0.00848877
-0.00844341
-0.00833139
-0.00818106
-0.00801687
-0.00785748
-0.00771494
-0.00759507
-0.0074989
-0.00742447
-0.00736835
-0.00732683
-0.00729649
-0.00727443
-0.00725809
-0.00724499
-0.00723307
-0.00722146
-0.00719314
-0.000160662
-0.000128097
-0.000104154
-7.95049e-05
-5.74639e-05
-3.88734e-05
-2.18448e-05
-2.99077e-06
2.13188e-05
5.38564e-05
9.58128e-05
0.000146549
0.000203801
0.000263921
0.000322371
0.000374216
0.000414822
0.00043901
0.000443236
0.000424514
0.000380593
0.000309494
0.000208771
7.45998e-05
-9.89875e-05
-0.000320429
-0.000600128
-0.000949008
-0.00137653
-0.00188884
-0.00248755
-0.00316934
-0.00392616
-0.00474599
-0.00561397
-0.00651323
-0.00742544
-0.00833148
-0.0092121
-0.0100484
-0.010822
-0.0115156
-0.012113
-0.0125996
-0.0129626
-0.0131911
-0.0132759
-0.0132094
-0.0129858
-0.0126034
-0.0120657
-0.0113775
-0.0105467
-0.00958446
-0.00850592
-0.00733065
-0.00608311
-0.00479275
-0.00349398
-0.00222584
-0.00103108
4.51453e-05
0.000957389
0.00166253
0.0021233
0.00231226
0.00221533
0.0018343
0.00118877
0.000316427
-0.00072941
-0.0018845
-0.00307998
-0.00424977
-0.00533677
-0.00629623
-0.00710003
-0.0077353
-0.00820193
-0.0085075
-0.00867191
-0.00871455
-0.00866158
-0.00853896
-0.00837285
-0.00818723
-0.00800204
-0.00783163
-0.00768445
-0.0075637
-0.00746875
-0.00739664
-0.00734343
-0.00730508
-0.0072779
-0.0072586
-0.00724399
-0.00723132
-0.0072192
-0.00718744
-0.000206389
-0.000167633
-0.000142188
-0.000118017
-9.85006e-05
-8.35435e-05
-6.957e-05
-5.16358e-05
-2.50921e-05
1.31882e-05
6.41583e-05
0.000126586
0.00019731
0.000271691
0.000344169
0.000408962
0.000459942
0.00049176
0.000499594
0.000479171
0.000426349
0.000336338
0.000202776
1.70415e-05
-0.000231738
-0.000555683
-0.000966287
-0.00147229
-0.00207799
-0.00278237
-0.00357912
-0.00445751
-0.00540354
-0.0064008
-0.00743124
-0.00847602
-0.00951616
-0.0105329
-0.0115082
-0.0124247
-0.0132662
-0.014018
-0.0146664
-0.0151995
-0.0156068
-0.0158797
-0.016011
-0.0159952
-0.015829
-0.0155121
-0.0150469
-0.014436
-0.0136859
-0.0128059
-0.011809
-0.0107111
-0.00953227
-0.00829669
-0.00703269
-0.00577286
-0.00455365
-0.00341452
-0.00239668
-0.00154102
-0.000885445
-0.00046142
-0.000290405
-0.000380343
-0.000723474
-0.00129569
-0.00205674
-0.00295305
-0.00392299
-0.00490358
-0.00583702
-0.00667623
-0.00738872
-0.00795708
-0.00837714
-0.00865476
-0.00880421
-0.00884146
-0.00878999
-0.00867019
-0.00850576
-0.00831748
-0.00812422
-0.00794086
-0.00777746
-0.00763929
-0.00752758
-0.00744071
-0.00737542
-0.00732782
-0.00729403
-0.00727035
-0.00725314
-0.0072391
-0.00722646
-0.00719328
-0.000255356
-0.000210188
-0.000184173
-0.000162042
-0.000146906
-0.000137211
-0.000127207
-0.000110234
-8.07515e-05
-3.55915e-05
2.56065e-05
0.000100637
0.000185343
0.00027391
0.000359363
0.00043473
0.000492968
0.000527154
0.000530533
0.000496172
0.000416195
0.000280968
7.86796e-05
-0.000204184
-0.000581295
-0.00106425
-0.00166041
-0.00237147
-0.00319309
-0.00411568
-0.00512565
-0.00620642
-0.00733948
-0.00850545
-0.0096848
-0.0108583
-0.0120077
-0.0131155
-0.0141655
-0.015143
-0.0160342
-0.0168272
-0.0175113
-0.0180772
-0.0185171
-0.0188244
-0.0189943
-0.0190236
-0.0189115
-0.0186587
-0.0182663
-0.0177349
-0.0170703
-0.0162809
-0.015377
-0.0143716
-0.0132805
-0.0121226
-0.01092
-0.00969843
-0.00848685
-0.00731743
-0.00622474
-0.00524457
-0.00441209
-0.00375948
-0.00331288
-0.0030891
-0.00309262
-0.00331342
-0.00372675
-0.00429465
-0.00496823
-0.00569286
-0.00641423
-0.00708458
-0.00766747
-0.00813998
-0.00849244
-0.00872612
-0.00885035
-0.00887908
-0.00883113
-0.00871936
-0.00856726
-0.00838982
-0.0082038
-0.00802249
-0.00785606
-0.0077109
-0.00758987
-0.00749291
-0.00741803
-0.00736215
-0.00732175
-0.00729328
-0.00727297
-0.00725728
-0.00724416
-0.00721155
-0.000305801
-0.000254213
-0.000228971
-0.000210863
-0.000202294
-0.000199554
-0.00019429
-0.000178114
-0.000144897
-9.19249e-05
-1.98464e-05
6.77848e-05
0.000166101
0.000266542
0.00036171
0.000442945
0.000501272
0.000527311
0.000510969
0.000440794
0.000303362
8.32458e-05
-0.000235961
-0.000669545
-0.00122908
-0.00192025
-0.00274179
-0.00368587
-0.0047394
-0.00588531
-0.00710399
-0.0083746
-0.00967606
-0.0109878
-0.0122902
-0.013565
-0.0147956
-0.0159667
-0.0170648
-0.0180779
-0.0189955
-0.0198086
-0.0205095
-0.0210915
-0.0215493
-0.0218785
-0.0220762
-0.0221416
-0.0220759
-0.0218803
-0.0215549
-0.0210993
-0.020519
-0.0198212
-0.0190149
-0.0181103
-0.0171196
-0.0160571
-0.0149394
-0.0137856
-0.0126173
-0.0114587
-0.0103364
-0.00927875
-0.00831505
-0.00747405
-0.00678205
-0.00626042
-0.0059229
-0.00577304
-0.0058024
-0.00598995
-0.0063041
-0.00670497
-0.00714825
-0.00759055
-0.00799451
-0.00833257
-0.00858864
-0.00875745
-0.00884228
-0.00885207
-0.00879935
-0.00869876
-0.008562
-0.00840205
-0.00823354
-0.00806593
-0.00790823
-0.0077668
-0.00764526
-0.00754486
-0.00746497
-0.00740364
-0.00735822
-0.00732566
-0.00730252
-0.00728532
-0.00727194
-0.00724161
-0.000355078
-0.000297479
-0.00027482
-0.000263106
-0.000263494
-0.000269321
-0.00026935
-0.000253684
-0.00021611
-0.000154937
-7.21664e-05
2.72088e-05
0.000135583
0.000244131
0.000342968
0.000421246
0.000467089
0.000467227
0.000406472
0.000267361
3.05619e-05
-0.000323513
-0.00081201
-0.00144666
-0.00223157
-0.00316263
-0.00422853
-0.00541226
-0.00669297
-0.00804773
-0.00945298
-0.0108856
-0.0123238
-0.0137472
-0.0151377
-0.0164791
-0.0177573
-0.01896
-0.0200769
-0.0210993
-0.0220198
-0.0228323
-0.0235318
-0.0241142
-0.0245763
-0.0249156
-0.0251309
-0.025223
-0.025194
-0.0250458
-0.0247778
-0.0243898
-0.0238871
-0.0232764
-0.022565
-0.0217611
-0.0208743
-0.0199153
-0.0188964
-0.0178312
-0.0167349
-0.0156245
-0.0145185
-0.0134371
-0.0124018
-0.0114348
-0.010558
-0.00979188
-0.00915383
-0.0086559
-0.00830303
-0.0080914
-0.00800773
-0.00803038
-0.00813174
-0.00828035
-0.00844465
-0.0085969
-0.00871622
-0.00879015
-0.00881426
-0.00879045
-0.00872477
-0.0086255
-0.00850316
-0.00836355
-0.00821655
-0.00806959
-0.0079291
-0.0078002
-0.00768639
-0.00758957
-0.00751017
-0.0074474
-0.00739965
-0.0073647
-0.00733973
-0.00732162
-0.00730834
-0.00728157
-0.000399549
-0.000336955
-0.000319161
-0.000316479
-0.00032823
-0.000343995
-0.000349662
-0.000334316
-0.000292418
-0.000223527
-0.000131535
-2.40185e-05
8.99496e-05
0.000199378
0.000291748
0.000352954
0.000366795
0.000314507
0.000174623
-7.61972e-05
-0.000460979
-0.000999116
-0.00170293
-0.00257539
-0.00360995
-0.00479184
-0.00610006
-0.0075098
-0.00899458
-0.0105278
-0.0120842
-0.0136402
-0.0151749
-0.0166699
-0.0181097
-0.0194811
-0.0207735
-0.0219779
-0.0230875
-0.0240965
-0.0250006
-0.0257962
-0.0264808
-0.0270523
-0.0275089
-0.0278498
-0.028075
-0.0281859
-0.028185
-0.0280742
-0.0278536
-0.0275241
-0.0270904
-0.0265582
-0.0259336
-0.0252234
-0.0244354
-0.0235778
-0.0226597
-0.0216909
-0.0206818
-0.0196436
-0.0185883
-0.0175285
-0.0164779
-0.0154506
-0.0144618
-0.0135267
-0.0126603
-0.0118766
-0.011187
-0.0105996
-0.0101176
-0.00973827
-0.009453
-0.00924858
-0.00910782
-0.00901113
-0.00893904
-0.00887478
-0.00880615
-0.00872616
-0.00863243
-0.0085257
-0.00840894
-0.00828731
-0.00816221
-0.00803868
-0.00791983
-0.00780943
-0.00770971
-0.00762257
-0.00754902
-0.00748916
-0.00744237
-0.00740735
-0.00738207
-0.00736397
-0.00735131
-0.00732879
-0.000434499
-0.000368705
-0.000358406
-0.00036752
-0.000392815
-0.000419554
-0.000431068
-0.000416207
-0.000370823
-0.000296085
-0.00019887
-8.85475e-05
2.31864e-05
0.000122472
0.000193276
0.00021687
0.000171301
3.13899e-05
-0.000230123
-0.000639871
-0.00121992
-0.0019838
-0.00293406
-0.00406224
-0.00535034
-0.00677355
-0.0083031
-0.00990877
-0.0115608
-0.0132314
-0.0148954
-0.016531
-0.0181197
-0.0196464
-0.021099
-0.0224682
-0.0237468
-0.0249294
-0.0260122
-0.0269923
-0.0278676
-0.0286368
-0.0292989
-0.0298532
-0.0302993
-0.0306374
-0.030868
-0.0309928
-0.0310143
-0.0309343
-0.0307536
-0.0304741
-0.0300999
-0.0296358
-0.0290871
-0.0284595
-0.0277595
-0.0269938
-0.0261692
-0.0252931
-0.0243726
-0.0234152
-0.0224279
-0.0214178
-0.020392
-0.0193577
-0.0183226
-0.0172947
-0.0162831
-0.0152979
-0.0143501
-0.0134516
-0.0126147
-0.0118508
-0.0111697
-0.0105778
-0.0100776
-0.00966673
-0.0093371
-0.00907579
-0.00886735
-0.00869661
-0.00855093
-0.00842114
-0.00830144
-0.00818883
-0.00808281
-0.00798163
-0.00788603
-0.00779688
-0.00771524
-0.00764229
-0.00757902
-0.00752606
-0.00748352
-0.00745096
-0.00742712
-0.00741014
-0.00739863
-0.00738053
-0.000454122
-0.000387796
-0.000387795
-0.000411348
-0.000451964
-0.000490394
-0.000508154
-0.000494977
-0.000447887
-0.000371578
-0.000274961
-0.000170242
-7.23224e-05
1.2052e-06
2.95271e-05
-1.19803e-05
-0.000151742
-0.000420663
-0.000849029
-0.001462
-0.00227501
-0.00329102
-0.00450032
-0.00588226
-0.00740849
-0.00904641
-0.0107621
-0.0125224
-0.0142971
-0.0160591
-0.0177857
-0.0194583
-0.0210621
-0.0225862
-0.0240224
-0.0253651
-0.0266106
-0.0277566
-0.0288015
-0.0297447
-0.030586
-0.0313254
-0.0319628
-0.0324987
-0.0329333
-0.0332673
-0.0335017
-0.0336382
-0.0336787
-0.0336249
-0.0334784
-0.0332417
-0.0329183
-0.0325122
-0.0320282
-0.0314711
-0.0308465
-0.0301599
-0.0294169
-0.0286232
-0.0277839
-0.0269039
-0.0259873
-0.0250376
-0.0240576
-0.0230492
-0.0220141
-0.0209539
-0.0198708
-0.0187682
-0.017652
-0.016531
-0.0154178
-0.0143295
-0.0132866
-0.012312
-0.0114281
-0.0106539
-0.0100017
-0.00947385
-0.00906206
-0.00874936
-0.00851453
-0.0083366
-0.00819801
-0.00808575
-0.00799127
-0.00790902
-0.00783502
-0.00776751
-0.0077057
-0.0076496
-0.00759975
-0.00755684
-0.00752144
-0.00749368
-0.00747303
-0.00745825
-0.00744839
-0.00743436
-0.000451626
-0.000388316
-0.000401333
-0.000441583
-0.000498756
-0.000549429
-0.000574307
-0.000564733
-0.000520371
-0.000448557
-0.000361267
-0.000274065
-0.000205756
-0.000178801
-0.000219945
-0.000360292
-0.000633971
-0.00107483
-0.00171145
-0.00256192
-0.00363051
-0.00490708
-0.00636906
-0.00798505
-0.00971887
-0.0115329
-0.0133909
-0.0152597
-0.0171105
-0.0189195
-0.0206679
-0.0223413
-0.0239295
-0.0254258
-0.0268258
-0.0281272
-0.0293292
-0.0304316
-0.0314349
-0.0323398
-0.0331471
-0.0338576
-0.0344721
-0.0349913
-0.0354159
-0.0357468
-0.0359852
-0.0361325
-0.0361902
-0.0361599
-0.0360438
-0.0358442
-0.0355644
-0.0352077
-0.0347783
-0.0342806
-0.0337191
-0.0330986
-0.0324239
-0.0316995
-0.0309295
-0.0301172
-0.0292651
-0.0283747
-0.027446
-0.026478
-0.0254684
-0.0244143
-0.0233122
-0.0221594
-0.0209548
-0.0197006
-0.018404
-0.0170789
-0.0157471
-0.0144383
-0.0131885
-0.0120365
-0.0110177
-0.0101585
-0.00947054
-0.00894763
-0.00856847
-0.00830297
-0.00811984
-0.00799227
-0.00790036
-0.00783093
-0.00777516
-0.00772764
-0.00768548
-0.00764721
-0.00761251
-0.00758179
-0.00755568
-0.00753467
-0.00751868
-0.00750704
-0.00749919
-0.00748852
-0.000419503
-0.000363535
-0.000391918
-0.000450503
-0.000524925
-0.000588721
-0.000623024
-0.000620421
-0.000584719
-0.000526129
-0.000460073
-0.000406067
-0.000387749
-0.000433451
-0.000576354
-0.000853298
-0.00130146
-0.00195306
-0.00282951
-0.00393732
-0.00526696
-0.00679479
-0.00848699
-0.0103041
-0.0122052
-0.0141505
-0.0161044
-0.018036
-0.0199204
-0.0217383
-0.0234758
-0.0251233
-0.026675
-0.0281279
-0.0294811
-0.0307348
-0.0318901
-0.0329485
-0.0339115
-0.0347807
-0.0355575
-0.036243
-0.0368383
-0.0373442
-0.0377616
-0.0380915
-0.038335
-0.0384931
-0.0385673
-0.0385589
-0.0384701
-0.0383034
-0.0380613
-0.037747
-0.037364
-0.036916
-0.036407
-0.0358412
-0.0352225
-0.0345549
-0.0338415
-0.033085
-0.032287
-0.0314479
-0.0305668
-0.029641
-0.0286663
-0.0276371
-0.0265465
-0.0253873
-0.0241528
-0.0228383
-0.0214433
-0.019974
-0.0184455
-0.0168843
-0.0153291
-0.0138289
-0.0124382
-0.0112086
-0.0101797
-0.00937033
-0.00877419
-0.00836262
-0.00809419
-0.00792597
-0.00782208
-0.00775694
-0.00771454
-0.0076838
-0.0076597
-0.00763885
-0.0076198
-0.00760235
-0.00758691
-0.00757399
-0.00756374
-0.0075559
-0.00755026
-0.00754199
-0.000350034
-0.000306277
-0.000351652
-0.000429344
-0.000521751
-0.00060005
-0.00064587
-0.000656468
-0.00063794
-0.000604186
-0.00057462
-0.000573469
-0.000630058
-0.000779032
-0.00105935
-0.00151116
-0.00217038
-0.00306231
-0.00419664
-0.00556557
-0.00714539
-0.00890064
-0.0107891
-0.0127665
-0.0147901
-0.0168212
-0.0188272
-0.0207816
-0.0226647
-0.0244626
-0.0261663
-0.0277709
-0.0292745
-0.0306772
-0.0319803
-0.0331859
-0.0342965
-0.0353142
-0.0362414
-0.0370798
-0.0378309
-0.0384962
-0.0390767
-0.0395732
-0.0399865
-0.0403177
-0.0405675
-0.0407371
-0.0408273
-0.0408396
-0.040776
-0.0406387
-0.04043
-0.0401524
-0.0398091
-0.0394032
-0.0389382
-0.0384176
-0.0378448
-0.0372232
-0.0365553
-0.0358434
-0.0350887
-0.0342912
-0.0334495
-0.0325608
-0.0316201
-0.030621
-0.0295551
-0.0284127
-0.0271836
-0.0258583
-0.0244292
-0.022894
-0.0212579
-0.0195379
-0.0177651
-0.0159865
-0.0142637
-0.0126663
-0.0112616
-0.010101
-0.00920851
-0.00857439
-0.0081599
-0.0079102
-0.00777035
-0.00769653
-0.00765927
-0.0076419
-0.00763345
-0.00762864
-0.00762476
-0.00762074
-0.00761653
-0.00761241
-0.00760856
-0.0076049
-0.00760153
-0.00759457
-0.000236034
-0.000209467
-0.000272363
-0.000369804
-0.000481616
-0.000574873
-0.000637607
-0.000668856
-0.000678301
-0.000683863
-0.000709445
-0.000784663
-0.000944933
-0.00123068
-0.0016845
-0.00234587
-0.0032444
-0.00439383
-0.00578928
-0.00740813
-0.00921413
-0.0111629
-0.0132072
-0.0153011
-0.0174033
-0.0194787
-0.0214995
-0.0234451
-0.0253014
-0.0270599
-0.0287164
-0.0302698
-0.0317211
-0.0330727
-0.0343275
-0.0354886
-0.0365591
-0.0375416
-0.0384384
-0.0392515
-0.0399824
-0.0406322
-0.0412021
-0.0416927
-0.0421048
-0.0424392
-0.0426966
-0.042878
-0.0429841
-0.0430162
-0.042976
-0.0428655
-0.0426865
-0.0424413
-0.0421325
-0.0417629
-0.0413352
-0.0408526
-0.0403179
-0.0397338
-0.0391026
-0.0384261
-0.0377052
-0.03694
-0.0361292
-0.0352699
-0.0343577
-0.0333862
-0.0323469
-0.0312297
-0.030023
-0.0287143
-0.0272918
-0.0257462
-0.0240736
-0.022279
-0.020381
-0.0184153
-0.0164373
-0.0145206
-0.0127495
-0.0112059
-0.00995153
-0.00901236
-0.00837242
-0.00797972
-0.00776452
-0.00766053
-0.00761835
-0.00760769
-0.00761148
-0.00762065
-0.00763071
-0.00763956
-0.00764646
-0.0076513
-0.00765404
-0.00765466
-0.00765349
-0.00764681
-7.17842e-05
-6.68662e-05
-0.000146871
-0.000266409
-0.00039544
-0.000508142
-0.000593943
-0.000655265
-0.000705931
-0.000768111
-0.000870702
-0.00104906
-0.00134427
-0.00180073
-0.00246112
-0.00335947
-0.00451438
-0.00592501
-0.00757111
-0.0094167
-0.0114159
-0.0135189
-0.0156768
-0.0178453
-0.0199868
-0.0220718
-0.0240787
-0.025993
-0.0278063
-0.0295148
-0.0311183
-0.0326184
-0.0340185
-0.0353221
-0.0365332
-0.0376552
-0.0386914
-0.0396445
-0.0405167
-0.0413097
-0.042025
-0.0426636
-0.0432264
-0.043714
-0.0441271
-0.0444663
-0.0447323
-0.0449258
-0.0450474
-0.0450984
-0.0450801
-0.0449941
-0.0448421
-0.044626
-0.0443478
-0.04401
-0.0436148
-0.0431647
-0.0426622
-0.0421094
-0.0415083
-0.0408603
-0.0401662
-0.039426
-0.0386386
-0.0378016
-0.0369112
-0.0359616
-0.0349454
-0.0338529
-0.0326729
-0.0313921
-0.0299969
-0.0284737
-0.0268118
-0.0250062
-0.0230621
-0.0209997
-0.0188597
-0.0167057
-0.0146232
-0.012711
-0.0110645
-0.00975331
-0.00880239
-0.00818554
-0.00783459
-0.00766418
-0.00759862
-0.00758622
-0.00759798
-0.0076185
-0.00764087
-0.00766151
-0.00767891
-0.00769235
-0.00770151
-0.0077063
-0.00770718
-0.00769987
0.000145946
0.000125447
2.69242e-05
-0.000110935
-0.000260185
-0.00039664
-0.000513159
-0.000616089
-0.000723534
-0.000862239
-0.00106638
-0.00137676
-0.00183867
-0.00249736
-0.00339115
-0.004544
-0.00596018
-0.00762313
-0.00949835
-0.0115393
-0.0136941
-0.0159109
-0.0181423
-0.0203482
-0.0224969
-0.0245654
-0.0265385
-0.0284077
-0.0301695
-0.0318241
-0.0333741
-0.0348233
-0.0361762
-0.037437
-0.0386101
-0.0396989
-0.0407067
-0.0416358
-0.0424883
-0.0432658
-0.0439694
-0.0446001
-0.0451586
-0.0456454
-0.0460612
-0.0464063
-0.0466814
-0.046887
-0.0470238
-0.0470927
-0.0470949
-0.0470317
-0.0469044
-0.0467146
-0.046464
-0.0461546
-0.0457882
-0.0453668
-0.0448924
-0.0443666
-0.043791
-0.0431668
-0.0424945
-0.0417741
-0.0410047
-0.0401843
-0.0393098
-0.0383764
-0.0373779
-0.0363058
-0.0351501
-0.0338985
-0.032537
-0.0310508
-0.0294254
-0.0276488
-0.0257154
-0.0236305
-0.0214166
-0.0191194
-0.0168113
-0.0145901
-0.0125688
-0.0108551
-0.0095236
-0.0085942
-0.00802613
-0.00773216
-0.00761175
-0.00758316
-0.00759603
-0.0076252
-0.00765807
-0.00768917
-0.00771614
-0.00773749
-0.00775264
-0.00776133
-0.0077641
-0.00775549
0.000417129
0.000366818
0.000253746
9.62695e-05
-7.51728e-05
-0.000240884
-0.000397349
-0.000555251
-0.000737069
-0.000974322
-0.00130628
-0.00177803
-0.00243646
-0.00332367
-0.00446909
-0.00588296
-0.00755373
-0.00944974
-0.0115249
-0.0137256
-0.0159974
-0.0182898
-0.0205596
-0.0227727
-0.0249043
-0.0269383
-0.0288655
-0.0306828
-0.0323906
-0.0339921
-0.0354917
-0.0368945
-0.0382056
-0.0394295
-0.0405703
-0.0416315
-0.0426159
-0.0435257
-0.0443627
-0.0451283
-0.0458233
-0.0464487
-0.0470049
-0.0474926
-0.047912
-0.0482638
-0.0485482
-0.0487658
-0.0489172
-0.0490032
-0.0490246
-0.0489825
-0.048878
-0.0487125
-0.0484871
-0.0482035
-0.0478632
-0.0474676
-0.0470183
-0.0465165
-0.0459635
-0.04536
-0.0447064
-0.0440026
-0.0432478
-0.0424403
-0.0415777
-0.040656
-0.0396701
-0.0386133
-0.037477
-0.0362505
-0.0349212
-0.0334748
-0.0318954
-0.0301677
-0.0282788
-0.0262225
-0.0240047
-0.0216506
-0.0192115
-0.0167695
-0.0144356
-0.012337
-0.010592
-0.00927668
-0.00840058
-0.00790348
-0.00767674
-0.00760663
-0.00761045
-0.00764346
-0.00768466
-0.00772488
-0.00776031
-0.00778877
-0.00780934
-0.00782158
-0.00782609
-0.00781579
0.00073754
0.000656457
0.00052866
0.000352069
0.000155542
-4.60024e-05
-0.000253081
-0.000480844
-0.0007562
-0.00111533
-0.00160173
-0.00226267
-0.00314308
-0.0042776
-0.00568294
-0.0073537
-0.00926253
-0.0113649
-0.0136064
-0.0159302
-0.0182826
-0.0206171
-0.0228966
-0.0250941
-0.0271921
-0.0291807
-0.0310564
-0.0328201
-0.0344753
-0.0360271
-0.0374812
-0.0388431
-0.0401181
-0.0413106
-0.0424245
-0.0434629
-0.0444282
-0.0453225
-0.0461473
-0.0469036
-0.0475924
-0.0482143
-0.0487698
-0.0492593
-0.0496832
-0.0500419
-0.0503357
-0.0505651
-0.0507305
-0.0508326
-0.0508721
-0.0508497
-0.0507665
-0.0506232
-0.0504212
-0.0501614
-0.049845
-0.0494731
-0.0490468
-0.0485671
-0.0480347
-0.0474501
-0.0468134
-0.0461244
-0.0453824
-0.0445859
-0.0437328
-0.04282
-0.0418434
-0.0407975
-0.0396756
-0.0384687
-0.0371664
-0.0357557
-0.0342218
-0.0325484
-0.0307192
-0.0287204
-0.0265455
-0.0242013
-0.0217163
-0.0191488
-0.0165919
-0.014171
-0.0120276
-0.0102885
-0.00902594
-0.00823322
-0.00782497
-0.00766995
-0.00764587
-0.00767557
-0.00772241
-0.00777047
-0.00781337
-0.00784821
-0.00787362
-0.0078891
-0.00789527
-0.00788323
0.00109817
0.000986223
0.000844317
0.000649084
0.000423014
0.000177792
-9.17622e-05
-0.000405386
-0.00079433
-0.00129884
-0.00196499
-0.00283923
-0.00396061
-0.00535236
-0.00701606
-0.0089301
-0.011053
-0.0133305
-0.0157037
-0.0181157
-0.0205163
-0.0228652
-0.0251325
-0.0272986
-0.0293528
-0.031291
-0.033114
-0.0348258
-0.0364321
-0.0379391
-0.0393531
-0.0406797
-0.0419239
-0.04309
-0.0441813
-0.0452008
-0.0461506
-0.0470323
-0.0478473
-0.0485965
-0.0492807
-0.0499005
-0.0504563
-0.0509484
-0.0513772
-0.051743
-0.0520461
-0.0522869
-0.0524657
-0.0525831
-0.0526395
-0.0526357
-0.0525722
-0.0524499
-0.0522694
-0.0520317
-0.0517376
-0.0513878
-0.050983
-0.0505239
-0.0500108
-0.049444
-0.0488234
-0.0481486
-0.0474187
-0.0466325
-0.0457881
-0.0448829
-0.0439136
-0.042876
-0.0417646
-0.0405725
-0.0392911
-0.0379097
-0.0364155
-0.0347931
-0.0330257
-0.0310959
-0.0289892
-0.0266988
-0.0242329
-0.0216245
-0.0189405
-0.0162871
-0.0138057
-0.0116523
-0.00995844
-0.00878571
-0.00810367
-0.00779628
-0.00771091
-0.00772473
-0.00777273
-0.0078272
-0.00787692
-0.00791767
-0.00794753
-0.00796604
-0.00797393
-0.00796039
0.00148497
0.00134252
0.00118776
0.000972156
0.000712203
0.000414905
7.03311e-05
-0.000345636
-0.000868146
-0.00154029
-0.00240833
-0.0035144
-0.00488778
-0.00653746
-0.00844884
-0.010585
-0.0128931
-0.0153127
-0.0177839
-0.0202526
-0.0226743
-0.0250161
-0.0272557
-0.0293806
-0.031386
-0.0332727
-0.0350448
-0.0367084
-0.0382706
-0.039738
-0.0411171
-0.0424134
-0.0436315
-0.0447753
-0.0458478
-0.0468515
-0.0477884
-0.0486598
-0.0494669
-0.0502106
-0.0508916
-0.0515102
-0.052067
-0.0525622
-0.0529962
-0.0533692
-0.0536814
-0.0539332
-0.0541248
-0.0542567
-0.0543292
-0.0543428
-0.0542979
-0.0541951
-0.0540349
-0.0538178
-0.0535445
-0.0532154
-0.0528309
-0.0523913
-0.0518968
-0.0513472
-0.0507422
-0.0500814
-0.0493637
-0.0485879
-0.0477523
-0.0468547
-0.0458923
-0.0448617
-0.0437586
-0.0425777
-0.0413122
-0.0399537
-0.0384916
-0.0369129
-0.0352018
-0.0333405
-0.0313108
-0.0290972
-0.0266927
-0.0241082
-0.0213822
-0.0185928
-0.0158623
-0.0133499
-0.011225
-0.00961836
-0.0085722
-0.00802331
-0.00782064
-0.00779581
-0.0078372
-0.00789585
-0.00795202
-0.0079987
-0.00803296
-0.00805458
-0.00806437
-0.00804991
0.00187899
0.00170719
0.00154183
0.00130266
0.00100335
0.000644988
0.000212642
-0.000321835
-0.000996647
-0.0018559
-0.00294308
-0.00429239
-0.00592023
-0.00781983
-0.00996045
-0.0122921
-0.0147541
-0.0172833
-0.0198215
-0.0223199
-0.0247412
-0.0270601
-0.0292618
-0.0313402
-0.0332957
-0.0351324
-0.036857
-0.038477
-0.04
-0.0414329
-0.0427819
-0.0440522
-0.0452481
-0.0463729
-0.0474295
-0.0484199
-0.049346
-0.0502088
-0.0510096
-0.051749
-0.0524276
-0.0530459
-0.0536043
-0.054103
-0.0545424
-0.0549225
-0.0552438
-0.0555062
-0.0557101
-0.0558558
-0.0559436
-0.0559736
-0.0559461
-0.0558617
-0.0557204
-0.0555228
-0.0552691
-0.0549596
-0.0545943
-0.0541733
-0.0536966
-0.0531638
-0.0525743
-0.0519276
-0.0512225
-0.0504577
-0.0496316
-0.0487423
-0.0477872
-0.0467636
-0.045668
-0.0444963
-0.0432433
-0.0419025
-0.0404657
-0.0389222
-0.0372587
-0.0354589
-0.0335038
-0.031374
-0.0290529
-0.0265343
-0.0238322
-0.0209937
-0.0181108
-0.0153253
-0.0128163
-0.0107638
-0.00928868
-0.00840334
-0.00800196
-0.00789746
-0.00791856
-0.00797715
-0.00803941
-0.00809231
-0.00813157
-0.00815673
-0.00816888
-0.00815431
0.00225625
0.00205674
0.00188132
0.00161671
0.00127241
0.000843913
0.000311494
-0.000356405
-0.00119973
-0.00226126
-0.00357851
-0.0051746
-0.00705103
-0.00918471
-0.0115303
-0.0140278
-0.0166118
-0.0192198
-0.0217979
-0.0243039
-0.0267083
-0.0289935
-0.0311515
-0.0331817
-0.0350882
-0.0368779
-0.0385592
-0.0401403
-0.0416288
-0.0430317
-0.0443547
-0.0456027
-0.0467794
-0.047888
-0.0489309
-0.0499101
-0.0508269