/*--------------------------------*- C++ -*----------------------------------*\
  =========                 |
  \\      /  F ield         | OpenFOAM: The Open Source CFD Toolbox
   \\    /   O peration     | Website:  https://openfoam.org
    \\  /    A nd           | Version:  7
     \\/     M anipulation  |
\*---------------------------------------------------------------------------*/
FoamFile
{
    version     2.0;
    format      ascii;
    class       surfaceScalarField;
    location    "49.9";
    object      phi;
}
// * * * * * * * * * * * * * * * * * * * * * * * * * * * * * * * * * * * * * //

dimensions      [0 3 -1 0 0 0 0];

internalField   nonuniform List<scalar> 
19800
(
-1.16434e-06
1.1641e-06
-1.8858e-06
7.21465e-07
-1.19429e-06
-6.91512e-07
9.5666e-07
-2.15095e-06
4.15431e-06
-3.19765e-06
7.80375e-06
-3.64945e-06
1.13013e-05
-3.49754e-06
1.41764e-05
-2.87512e-06
1.61557e-05
-1.97925e-06
1.71711e-05
-1.01546e-06
1.73318e-05
-1.60663e-07
1.68733e-05
4.58493e-07
1.61009e-05
7.72439e-07
1.53329e-05
7.67972e-07
1.48568e-05
4.76095e-07
1.48954e-05
-3.86071e-08
1.55774e-05
-6.82044e-07
1.69312e-05
-1.35372e-06
1.88773e-05
-1.94612e-06
2.12436e-05
-2.36634e-06
2.37892e-05
-2.54562e-06
2.62339e-05
-2.44463e-06
2.82867e-05
-2.05284e-06
2.96697e-05
-1.38297e-06
3.01261e-05
-4.56443e-07
2.94186e-05
7.07518e-07
2.73326e-05
2.086e-06
2.36606e-05
3.672e-06
1.81788e-05
5.48181e-06
1.06433e-05
7.53546e-06
7.82827e-07
9.86052e-06
-1.16964e-05
1.24792e-05
-2.70926e-05
1.53962e-05
-4.56881e-05
1.85955e-05
-6.77244e-05
2.20363e-05
-9.33785e-05
2.56541e-05
-0.000122739
2.93607e-05
-0.000155783
3.3044e-05
-0.000192356
3.65727e-05
-0.000232165
3.98094e-05
-0.00027479
4.26244e-05
-0.000319683
4.48936e-05
-0.000366173
4.64894e-05
-0.000413463
4.72907e-05
-0.000460655
4.71918e-05
-0.00050676
4.61046e-05
-0.000550722
4.39626e-05
-0.000591447
4.07249e-05
-0.000627829
3.63814e-05
-0.000658784
3.09557e-05
-0.00068328
2.44959e-05
-0.000700328
1.7048e-05
-0.000709028
8.69994e-06
-0.000708906
-1.2155e-07
-0.000698497
-1.04093e-05
-0.000677721
-2.0776e-05
-0.000646603
-3.11179e-05
-0.000604896
-4.17076e-05
-0.000552832
-5.20638e-05
-0.000490984
-6.18474e-05
-0.000420268
-7.07161e-05
-0.000341963
-7.83057e-05
-0.000257712
-8.42503e-05
-0.00016951
-8.82019e-05
-7.96518e-05
-8.98587e-05
9.37763e-06
-8.90294e-05
9.51568e-05
-8.57792e-05
0.000174867
-7.97098e-05
0.000246106
-7.12394e-05
0.00030664
-6.05339e-05
0.000354838
-4.81978e-05
0.000389596
-3.4758e-05
0.000410477
-2.08817e-05
0.000417801
-7.32328e-06
0.000412548
5.25238e-06
0.000396263
1.6285e-05
0.000370926
2.53373e-05
0.000338789
3.21366e-05
0.000302293
3.64959e-05
0.00026382
3.84738e-05
0.000225469
3.83505e-05
0.000188928
3.65415e-05
0.000155401
3.35263e-05
0.000125618
2.97837e-05
9.98817e-05
2.57359e-05
7.81668e-05
2.1715e-05
6.02148e-05
1.7952e-05
4.56316e-05
1.45832e-05
3.3962e-05
1.16697e-05
2.47405e-05
9.22143e-06
1.75242e-05
7.2163e-06
1.19121e-05
5.61215e-06
7.55925e-06
4.35282e-06
4.19282e-06
3.36643e-06
1.63107e-06
2.56175e-06
-1.98615e-07
1.82968e-06
-1.26165e-06
1.06303e-06
-1.47851e-06
2.16864e-07
-8.89879e-07
-5.88632e-07
-8.8988e-07
-8.34597e-07
1.9987e-06
9.10442e-09
-1.22242e-07
3.68588e-06
-4.36828e-06
1.01936e-05
-8.65865e-06
1.86873e-05
-1.16913e-05
2.79585e-05
-1.29207e-05
3.67985e-05
-1.23375e-05
4.423e-05
-1.03066e-05
4.96377e-05
-7.38693e-06
5.28015e-05
-4.17925e-06
5.38554e-05
-1.21455e-06
5.32165e-05
1.09732e-06
5.1444e-05
2.54497e-06
4.91684e-05
3.04358e-06
4.69704e-05
2.67405e-06
4.53023e-05
1.62955e-06
4.4421e-05
1.99211e-07
4.43597e-05
-1.29239e-06
4.49238e-05
-2.51026e-06
4.57056e-05
-3.14812e-06
4.61349e-05
-2.97493e-06
4.55294e-05
-1.83914e-06
4.31404e-05
3.36203e-07
3.82637e-05
3.49372e-06
3.01228e-05
7.68442e-06
1.79779e-05
1.28525e-05
1.10136e-06
1.89625e-05
-2.12412e-05
2.60146e-05
-4.97558e-05
3.39965e-05
-8.5159e-05
4.29386e-05
-0.000128135
5.2837e-05
-0.000179289
6.36325e-05
-0.000239076
7.5183e-05
-0.000307727
8.72473e-05
-0.00038517
9.94786e-05
-0.000470952
0.000111436
-0.000564205
0.000122614
-0.00066365
0.000132489
-0.000767641
0.000140564
-0.00087426
0.000146429
-0.00098146
0.000149824
-0.00108701
0.00015044
-0.0011887
0.000148188
-0.00128453
0.000143117
-0.00137265
0.000135311
-0.00145144
0.000124891
-0.00151948
0.000112002
-0.00157556
9.68049e-05
-0.00161865
7.94775e-05
-0.00164787
6.01734e-05
-0.00166257
3.91996e-05
-0.00166236
1.68355e-05
-0.00164698
-6.68024e-06
-0.00161539
-3.17131e-05
-0.00156834
-5.74553e-05
-0.00150551
-8.36086e-05
-0.00142691
-0.000109718
-0.00133324
-0.000135379
-0.00122523
-0.000160073
-0.0011039
-0.00018318
-0.000970586
-0.000204027
-0.000826997
-0.000221894
-0.000675198
-0.00023605
-0.000517614
-0.000245786
-0.000357
-0.000250472
-0.000196406
-0.000249624
-3.91638e-05
-0.000243021
0.000111724
-0.000230598
0.000252874
-0.000212389
0.000380998
-0.000188658
0.000493405
-0.000160604
0.000587773
-0.000129127
0.000662262
-9.53698e-05
0.000715749
-6.08106e-05
0.000748173
-2.71712e-05
0.000760237
4.22049e-06
0.000752167
3.34074e-05
0.000726075
5.82287e-05
0.000684487
7.80834e-05
0.000630558
9.24026e-05
0.000567922
0.000100987
0.000500413
0.00010405
0.000431735
0.000102204
0.000365123
9.63962e-05
0.00030308
8.77787e-05
0.000247258
7.75373e-05
0.000198479
6.67307e-05
0.000156882
5.61804e-05
0.000122112
4.64401e-05
9.35087e-05
3.78243e-05
7.02652e-05
3.04598e-05
5.15413e-05
2.4336e-05
3.65504e-05
1.93438e-05
2.46218e-05
1.5295e-05
1.52519e-05
1.19316e-05
8.13709e-06
8.94447e-06
3.1675e-06
6.03262e-06
3.36965e-07
3.0474e-06
-5.21554e-07
2.69885e-07
-1.41143e-06
1.93869e-07
1.80483e-06
3.3886e-06
-3.31696e-06
1.05406e-05
-1.15203e-05
2.1251e-05
-1.9369e-05
3.42994e-05
-2.47397e-05
4.80817e-05
-2.6703e-05
6.10285e-05
-2.52843e-05
7.18815e-05
-2.11596e-05
7.9839e-05
-1.53445e-05
8.45891e-05
-8.92933e-06
8.62581e-05
-2.88352e-06
8.5304e-05
2.05141e-06
8.24143e-05
5.4347e-06
7.83248e-05
7.13308e-06
7.37195e-05
7.2793e-06
6.91061e-05
6.24301e-06
6.47345e-05
4.57073e-06
6.05374e-05
2.90473e-06
5.61235e-05
1.9037e-06
5.08135e-05
2.16179e-06
4.36974e-05
4.14124e-06
3.37036e-05
8.15466e-06
1.96711e-05
1.43687e-05
3.31487e-07
2.28334e-05
-2.5541e-05
3.35569e-05
-5.91848e-05
4.64963e-05
-0.000101825
6.1603e-05
-0.000154632
7.88217e-05
-0.000218698
9.80624e-05
-0.000294933
0.000119173
-0.000383955
0.000141859
-0.000485942
0.000165619
-0.000600464
0.000189705
-0.000726359
0.000213143
-0.000861711
0.00023483
-0.00100394
0.000253667
-0.00115003
0.000268703
-0.00129677
0.000279231
-0.00144104
0.000284833
-0.00157998
0.000285372
-0.00171111
0.000280945
-0.00183244
0.000271774
-0.00194243
0.000258176
-0.00203985
0.000240537
-0.00212379
0.00021925
-0.00219359
0.000194691
-0.00224879
0.000167203
-0.00228907
0.00013709
-0.00231422
0.000104622
-0.00232411
7.00692e-05
-0.00231872
3.38069e-05
-0.00229825
-3.63078e-06
-0.00226183
-4.3108e-05
-0.00221019
-8.33527e-05
-0.00214337
-0.000124274
-0.00206153
-0.000165448
-0.00196484
-0.000206403
-0.00185368
-0.000246538
-0.00172862
-0.000285135
-0.00159043
-0.000321373
-0.00144013
-0.000354327
-0.00127904
-0.000382983
-0.00110881
-0.000406283
-0.000931418
-0.000423177
-0.000749199
-0.00043269
-0.000564797
-0.000434026
-0.000381155
-0.000426663
-0.000201445
-0.000410307
-2.88302e-05
-0.000385005
0.000134275
-0.000351763
0.000284484
-0.000310814
0.00041915
-0.000263793
0.000536199
-0.000212419
0.000634076
-0.000158688
0.000711161
-0.000104256
0.000766442
-5.10603e-05
0.000801015
-1.16534e-06
0.000813569
4.5675e-05
0.000805503
8.61492e-05
0.000778381
0.000119524
0.000734558
0.00014481
0.000677203
0.000161406
0.000610139
0.000169268
0.000537548
0.000168987
0.000463544
0.000161782
0.000391738
0.000149344
0.000324877
0.000133591
0.000264724
0.000116334
0.000212118
9.90459e-05
0.000167147
8.27957e-05
0.000129372
6.82345e-05
9.80546e-05
5.56535e-05
7.23365e-05
4.50619e-05
5.1385e-05
3.62465e-05
3.44998e-05
2.88169e-05
2.1186e-05
2.22583e-05
1.11799e-05
1.60387e-05
4.39137e-06
9.83597e-06
7.75494e-07
3.88576e-06
-6.3594e-07
1.2598e-06
5.45033e-07
6.92926e-06
-8.98642e-06
1.7426e-05
-2.2017e-05
3.19058e-05
-3.38489e-05
4.87131e-05
-4.1547e-05
6.58965e-05
-4.38864e-05
8.16411e-05
-4.10289e-05
9.45483e-05
-3.40669e-05
0.00010376
-2.45565e-05
0.000108962
-1.41313e-05
0.000110305
-4.22658e-06
0.000108284
4.07266e-06
0.00010359
1.01287e-05
9.69651e-05
1.37582e-05
8.90492e-05
1.51951e-05
8.02521e-05
1.50402e-05
7.06497e-05
1.41731e-05
5.9925e-05
1.36294e-05
4.73677e-05
1.4461e-05
3.19106e-05
1.76188e-05
1.22089e-05
2.38429e-05
-1.32757e-05
3.36393e-05
-4.61994e-05
4.72924e-05
-8.82824e-05
6.49164e-05
-0.000141234
8.65088e-05
-0.000206706
0.000111968
-0.0002862
0.000141097
-0.000380945
0.000173566
-0.000491711
0.000208829
-0.000618564
0.000246026
-0.000760615
0.00028391
-0.000915869
0.000320873
-0.00108128
0.000355115
-0.00125303
0.000384897
-0.00142699
0.00040879
-0.00159915
0.000425819
-0.00176594
0.000435501
-0.0019245
0.000437785
-0.00207261
0.00043294
-0.00220869
0.000421459
-0.0023317
0.000403954
-0.00244101
0.000381081
-0.00253631
0.000353481
-0.00261752
0.000321748
-0.00268469
0.00028641
-0.00273791
0.000247919
-0.00277736
0.000206648
-0.00280316
0.000162891
-0.00281543
0.000116891
-0.00281426
6.89004e-05
-0.00279974
1.92895e-05
-0.00277156
-3.18101e-05
-0.00273023
-8.44356e-05
-0.00267542
-0.000138163
-0.00260704
-0.000192656
-0.002525
-0.000247486
-0.00242927
-0.000302135
-0.00231989
-0.000355925
-0.002197
-0.000408021
-0.00206094
-0.000457428
-0.00191228
-0.000502995
-0.00175183
-0.000543432
-0.00158076
-0.000577348
-0.00140061
-0.000603326
-0.0012133
-0.000620007
-0.00102112
-0.000626205
-0.000826751
-0.000621029
-0.000633105
-0.000603953
-0.000443134
-0.000574976
-0.000260184
-0.000534713
-8.69117e-05
-0.000484086
7.42395e-05
-0.000424944
0.00022102
-0.000359199
0.000351374
-0.000289042
0.000463677
-0.000216559
0.000557112
-0.000144495
0.000630449
-7.4502e-05
0.000684735
-8.61176e-06
0.000718471
5.24131e-05
0.000731995
0.000106001
0.000725984
0.000150821
0.000701818
0.000185572
0.000661746
0.000209339
0.000608889
0.000221844
0.000547042
0.00022363
0.000480287
0.000216098
0.000412545
0.000201334
0.000347121
0.000181758
0.000286422
0.000159744
0.0002319
0.000137317
0.000184159
0.000115976
0.000143167
9.66453e-05
0.000108485
7.97445e-05
7.94741e-05
6.52571e-05
5.54795e-05
5.28115e-05
3.59658e-05
4.17719e-05
2.06156e-05
3.13889e-05
9.36966e-06
2.10819e-05
2.39898e-06
1.08564e-05
1.76304e-06
2.19221e-06
-1.64717e-06
1.0175e-05
-1.69693e-05
2.37842e-05
-3.56261e-05
4.15889e-05
-5.16537e-05
6.1424e-05
-6.13821e-05
8.0969e-05
-6.34314e-05
9.82106e-05
-5.82704e-05
0.000111704
-4.75599e-05
0.000120644
-3.34968e-05
0.000124811
-1.82987e-05
0.000124444
-3.85935e-06
0.000120081
8.43594e-06
0.000112397
1.78125e-05
0.000102047
2.41077e-05
8.95049e-05
2.77375e-05
7.49251e-05
2.962e-05
5.80392e-05
3.10591e-05
3.81032e-05
3.35655e-05
1.39234e-05
3.86408e-05
-1.61018e-05
4.7644e-05
-5.38499e-05
6.15911e-05
-0.000101375
8.11647e-05
-0.000160809
0.000106726
-0.000234245
0.000138352
-0.000323605
0.000175869
-0.000430464
0.000218827
-0.000555794
0.000266427
-0.000699641
0.000317413
-0.000860797
0.000369985
-0.00103662
0.000421849
-0.00122316
0.000470446
-0.00141561
0.000513322
-0.00160898
0.000548488
-0.00179871
0.000574626
-0.00198104
0.00059112
-0.00215316
0.000597944
-0.00231318
0.00059552
-0.00245996
0.000584567
-0.00259296
0.000565941
-0.00271206
0.000540557
-0.00281742
0.000509309
-0.00290935
0.000473015
-0.00298827
0.000432396
-0.00305458
0.000388063
-0.00310869
0.000340517
-0.00315092
0.000290155
-0.00318155
0.000237278
-0.00320077
0.000182105
-0.00320868
0.000124806
-0.00320532
6.55412e-05
-0.0031903
4.26978e-06
-0.00316406
-5.8055e-05
-0.00312634
-0.000122159
-0.00307682
-0.000187677
-0.00301518
-0.000254296
-0.00294108
-0.000321588
-0.0028542
-0.000389017
-0.00275425
-0.000455872
-0.00264102
-0.00052125
-0.00251441
-0.000584036
-0.00237451
-0.0006429
-0.00222163
-0.000696308
-0.00205644
-0.000742544
-0.00187995
-0.000779815
-0.00169363
-0.000806324
-0.00149944
-0.000820403
-0.00129979
-0.000820677
-0.00109751
-0.000806227
-0.000895744
-0.000776746
-0.000697825
-0.000732632
-0.000506896
-0.000675015
-0.00032601
-0.00060583
-0.000157713
-0.000527496
-4.01371e-06
-0.000442742
0.000134288
-0.000354861
0.00025558
-0.000265787
0.000359493
-0.000178415
0.000445504
-9.46229e-05
0.000513948
-1.60311e-05
0.000564092
5.58572e-05
0.00059563
0.000119282
0.000608633
0.000172569
0.00060371
0.000214262
0.000582295
0.000243259
0.000546739
0.000259186
0.000500205
0.000262632
0.000446363
0.000255176
0.000388938
0.000239183
0.000331272
0.00021741
0.000276012
0.000192578
0.000224969
0.000167018
0.000179151
0.000142464
0.000138912
0.000119983
0.000104164
0.000100006
7.45843e-05
8.2391e-05
4.98216e-05
6.65346e-05
2.96711e-05
5.15394e-05
1.4228e-05
3.6525e-05
4.0019e-06
2.10826e-05
5.76494e-06
3.04964e-06
-4.69681e-06
1.32498e-05
-2.71694e-05
2.9797e-05
-5.21733e-05
5.05571e-05
-7.24138e-05
7.27544e-05
-8.35793e-05
9.36618e-05
-8.43389e-05
0.000111104
-7.57122e-05
0.000123672
-6.01285e-05
0.000130719
-4.05431e-05
0.000132208
-1.97887e-05
0.000128528
-1.78501e-07
0.000120279
1.66844e-05
0.000108095
2.99969e-05
9.24598e-05
3.97427e-05
7.35511e-05
4.66463e-05
5.11029e-05
5.20682e-05
2.43227e-05
5.78393e-05
-8.14975e-06
6.60379e-05
-4.81818e-05
7.86729e-05
-9.79665e-05
9.74287e-05
-0.000159948
0.000123572
-0.00023662
0.000157837
-0.000330337
0.000200443
-0.000443083
0.000251098
-0.000576157
0.000308943
-0.000729786
0.000372457
-0.000902728
0.000439369
-0.00109203
0.000506713
-0.00129316
0.000571115
-0.00150058
0.000629275
-0.00170859
0.000678453
-0.00191206
0.000716791
-0.00210693
0.000743356
-0.00229033
0.000758025
-0.00246049
0.000761287
-0.00261655
0.000753998
-0.00275827
0.00073724
-0.00288587
0.000712172
-0.00299985
0.00067992
-0.00310082
0.000641527
-0.00318944
0.000597924
-0.00326633
0.000549913
-0.0033321
0.00049816
-0.00338724
0.000443205
-0.00343219
0.000385466
-0.00346729
0.000325253
-0.00349279
0.000262782
-0.00350889
0.000198201
-0.00351568
0.000131594
-0.00351306
6.29287e-05
-0.00350076
-8.03838e-06
-0.00347924
-7.95728e-05
-0.00344805
-0.000153345
-0.00340682
-0.000228906
-0.00335516
-0.000305961
-0.00329257
-0.000384174
-0.00321854
-0.000463045
-0.00313251
-0.000541907
-0.0030339
-0.000619855
-0.0029222
-0.000695744
-0.00279695
-0.000768146
-0.00265789
-0.000835364
-0.002505
-0.000895438
-0.00233859
-0.00094622
-0.00215945
-0.00098547
-0.0019689
-0.00101096
-0.00176889
-0.00102068
-0.00156199
-0.00101312
-0.00135136
-0.000987377
-0.0011406
-0.000943398
-0.000933483
-0.000882127
-0.0007338
-0.000805513
-0.000544921
-0.000716375
-0.000369477
-0.000618185
-0.00020962
-0.000514718
-6.60551e-05
-0.000409352
6.0809e-05
-0.000305279
0.000171041
-0.000204855
0.000264855
-0.000109845
0.000342494
-2.17827e-05
0.000403665
5.81119e-05
0.000448029
0.000128205
0.000475291
0.000187
0.000485599
0.000232951
0.000479813
0.000264973
0.000459673
0.000282772
0.000427752
0.000287097
0.000387201
0.000279734
0.000341362
0.000263249
0.000293367
0.000240573
0.000245826
0.000214559
0.000200664
0.000187626
0.000159109
0.000161538
0.000121802
0.000137312
8.89721e-05
0.000115221
6.06559e-05
9.48508e-05
3.69367e-05
7.52586e-05
1.8189e-05
5.52727e-05
5.32068e-06
3.39509e-05
1.10856e-05
3.93869e-06
-8.6355e-06
1.63954e-05
-3.96261e-05
3.5804e-05
-7.1582e-05
5.91863e-05
-9.57961e-05
8.3062e-05
-0.000107455
0.000104289
-0.000105566
0.000120594
-9.2017e-05
0.000130706
-7.02401e-05
0.000134229
-4.4066e-05
0.000131389
-1.69491e-05
0.000122758
8.45258e-06
0.000108994
3.0448e-05
9.06299e-05
4.83615e-05
6.78739e-05
6.24986e-05
4.04538e-05
7.40664e-05
7.51962e-06
8.50023e-05
-3.24914e-05
9.78503e-05
-8.16663e-05
0.000115213
-0.00014256
0.000139567
-0.000217997
0.000172865
-0.000310775
0.00021635
-0.00042338
0.000270442
-0.000557625
0.000334688
-0.0007142
0.000407673
-0.000892199
0.000486942
-0.00108878
0.000569042
-0.00129923
0.000649817
-0.00151751
0.000724986
-0.00173719
0.000790803
-0.00195247
0.000844547
-0.0021587
0.000884686
-0.00235268
0.000910774
-0.00253251
0.000923187
-0.00269733
0.000922843
-0.00284703
0.000910991
-0.00298203
0.000888992
-0.00310299
0.000858202
-0.00321073
0.000819911
-0.00330609
0.000775283
-0.00338991
0.000725342
-0.00346295
0.000670965
-0.00352592
0.00061288
-0.00357943
0.000551677
-0.00362404
0.000487814
-0.00366021
0.000421632
-0.00368832
0.000353365
-0.0037087
0.000283162
-0.00372159
0.000211091
-0.00372711
0.000137119
-0.00372524
6.10572e-05
-0.00371616
-1.712e-05
-0.00369975
-9.59817e-05
-0.00367585
-0.000177243
-0.00364415
-0.000260611
-0.00360421
-0.0003459
-0.0035555
-0.000432883
-0.00349737
-0.000521176
-0.00342905
-0.000610222
-0.00334969
-0.000699218
-0.00325834
-0.00078709
-0.00315405
-0.000872439
-0.00303589
-0.000953526
-0.00290306
-0.00102827
-0.002755
-0.00109427
-0.00259157
-0.00114891
-0.0024131
-0.00118942
-0.00222062
-0.00121316
-0.00201599
-0.00121775
-0.00180194
-0.00120143
-0.00158202
-0.00116332
-0.00136047
-0.00110368
-0.00114192
-0.00102406
-0.000931008
-0.000927286
-0.0007319
-0.000817293
-0.000547931
-0.000698688
-0.000381095
-0.000576188
-0.000232232
-0.000454142
-0.000101091
-0.000335996
1.31971e-05
-0.000224132
0.000111388
-0.000119974
0.000194232
-2.47323e-05
0.000262021
6.04164e-05
0.000314416
0.000134605
0.000351093
0.000196273
0.000371971
0.000244094
0.000377585
0.000277158
0.000369265
0.000295417
0.000349124
0.000299875
0.000319852
0.00029252
0.000284383
0.000276043
0.000245541
0.000253401
0.000205763
0.000227404
0.000166939
0.000200362
0.000130386
0.000173865
9.69424e-05
0.000148665
6.71504e-05
0.000124643
4.15036e-05
0.000100905
2.0743e-05
7.60333e-05
6.17778e-06
4.8516e-05
1.72634e-05
4.93947e-06
-1.3575e-05
1.97784e-05
-5.4465e-05
4.19903e-05
-9.37939e-05
6.75928e-05
-0.000121399
9.23368e-05
-0.000132199
0.000112716
-0.000125945
0.000126469
-0.00010577
0.000132584
-7.63549e-05
0.000131009
-4.24912e-05
0.000122276
-8.2155e-06
0.00010713
2.35982e-05
8.62371e-05
5.13408e-05
5.99206e-05
7.46781e-05
2.79742e-05
9.44449e-05
-1.04966e-05
0.000112537
-5.72012e-05
0.000131707
-0.000114435
0.000155084
-0.00018512
0.000185898
-0.000272429
0.000226876
-0.000379422
0.000279859
-0.000508614
0.000345541
-0.000661463
0.000423292
-0.000837828
0.000511053
-0.00103549
0.000605336
-0.00125003
0.000701481
-0.00147524
0.00079425
-0.00170409
0.000878665
-0.00192986
0.000950762
-0.00214705
0.00100799
-0.00235173
0.00104922
-0.00254151
0.00107447
-0.00271527
0.00108454
-0.00287283
0.00108075
-0.00301461
0.00106462
-0.00314136
0.00103774
-0.00325403
0.00100166
-0.00335361
0.000957783
-0.00344111
0.000907409
-0.00351748
0.00085166
-0.00358365
0.000791505
-0.00364043
0.000727753
-0.00368862
0.000661062
-0.00372889
0.000591951
-0.00376188
0.000520802
-0.00378813
0.000447884
-0.00380813
0.000373363
-0.00382228
0.000297316
-0.00383092
0.000219728
-0.00383428
0.000140475
-0.00383249
5.92672e-05
-0.00382581
-2.3798e-05
-0.00381411
-0.000107679
-0.00379731
-0.000194044
-0.0037752
-0.000282723
-0.00374742
-0.000373675
-0.00371349
-0.000466815
-0.00367274
-0.000561926
-0.00362434
-0.000658624
-0.00356726
-0.000756297
-0.00350031
-0.000854048
-0.0034221
-0.000950643
-0.00333116
-0.00104447
-0.00322595
-0.00113348
-0.00310499
-0.00121523
-0.00296704
-0.00128687
-0.00281121
-0.00134525
-0.00263727
-0.0013871
-0.00244579
-0.00140923
-0.00223837
-0.00140885
-0.0020178
-0.00138389
-0.00178808
-0.0013334
-0.00155423
-0.0012579
-0.00132198
-0.00115954
-0.0010972
-0.00104207
-0.000885264
-0.000910621
-0.000690371
-0.00077108
-0.000515102
-0.000629411
-0.000360271
-0.000490828
-0.00022519
-0.000359214
-0.000108195
-0.000236968
-7.56632e-06
-0.000125361
7.76376e-05
-2.47876e-05
0.000148443
6.37997e-05
0.000204974
0.000139743
0.000246876
0.000202192
0.000274078
0.000249956
0.000286977
0.000282518
0.000286677
0.000300175
0.000274981
0.000304216
0.000254217
0.000296807
0.000226953
0.000280665
0.000195702
0.000258655
0.000162679
0.000233384
0.000129674
0.00020687
9.80479e-05
0.000180291
6.8844e-05
0.000153847
4.30065e-05
0.000126743
2.16699e-05
9.73699e-05
6.49474e-06
6.36912e-05
2.37581e-05
6.0844e-06
-1.96594e-05
2.34284e-05
-7.1809e-05
4.82895e-05
-0.000118655
7.55238e-05
-0.000148633
0.00010011
-0.000156785
0.0001183
-0.000144135
0.000128009
-0.00011548
0.000128613
-7.69588e-05
0.000120471
-3.43497e-05
0.000104419
7.83705e-06
8.13158e-05
4.67013e-05
5.17171e-05
8.09395e-05
1.55981e-05
0.000110797
-2.7903e-05
0.000137946
-8.04826e-05
0.000165117
-0.000144642
0.000195867
-0.000223605
0.000234047
-0.000320865
0.000283158
-0.000439709
0.000345719
-0.000582617
0.000422767
-0.000750615
0.00051354
-0.000942663
0.00061534
-0.00115527
0.00072366
-0.00138263
0.0008327
-0.00161743
0.000936275
-0.00185204
0.00102886
-0.00207977
0.0011064
-0.00229556
0.00116655
-0.00249612
0.00120855
-0.00267973
0.00123283
-0.00284585
0.00124059
-0.00299474
0.00123343
-0.00312714
0.00121314
-0.00324403
0.00118151
-0.00334654
0.00114026
-0.00343583
0.00109095
-0.00351306
0.00103501
-0.00357935
0.000973698
-0.00363577
0.000908083
-0.00368334
0.000839071
-0.00372299
0.000767399
-0.00375557
0.000693648
-0.00378188
0.000618254
-0.0038026
0.000541522
-0.00381835
0.000463638
-0.00382968
0.000384692
-0.00383704
0.00030468
-0.00384083
0.000223513
-0.00384135
0.000141
-0.00383889
5.68035e-05
-0.00383373
-2.89597e-05
-0.00382569
-0.000115711
-0.00381487
-0.000204867
-0.00380118
-0.000296412
-0.00378441
-0.000390444
-0.00376421
-0.000487023
-0.00374002
-0.000586113
-0.00371111
-0.000687535
-0.00367649
-0.000790913
-0.00363492
-0.000895615
-0.00358488
-0.00100069
-0.00352455
-0.00110479
-0.0034519
-0.00120613
-0.00336471
-0.00130242
-0.00326071
-0.00139086
-0.00313779
-0.00146818
-0.00299419
-0.0015307
-0.00282885
-0.00157457
-0.0026417
-0.001596
-0.00243392
-0.00159167
-0.0022082
-0.00155912
-0.00196895
-0.00149716
-0.00172205
-0.00140644
-0.00147448
-0.00128964
-0.00123367
-0.00115143
-0.00100654
-0.000998208
-0.000798636
-0.000837315
-0.000613362
-0.000676102
-0.000451716
-0.000520859
-0.000312621
-0.000376063
-0.000193785
-0.000244197
-9.24643e-05
-0.000126109
-6.83375e-06
-2.18308e-05
6.43763e-05
6.85329e-05
0.00012182
0.000144749
0.000165546
0.00020623
0.000195516
0.000252548
0.000212164
0.000283527
0.00021651
0.00029987
0.000210171
0.000303146
0.000195207
0.000295629
0.000173887
0.000279975
0.000148445
0.000258826
0.000120893
0.000234422
9.29458e-05
0.000208239
6.60606e-05
0.000180732
4.15914e-05
0.000151212
2.10285e-05
0.000117933
6.28933e-06
7.84303e-05
3.00475e-05
7.36415e-06
-2.70235e-05
2.72434e-05
-9.16883e-05
5.43938e-05
-0.000145805
8.23944e-05
-0.000176634
0.000105537
-0.000179928
0.000120033
-0.000158631
0.000124168
-0.000119615
0.000117825
-7.06156e-05
0.000101803
-1.83271e-05
7.71617e-05
3.2478e-05
4.47673e-05
7.90957e-05
4.9292e-06
0.000120778
-4.30719e-05
0.000158798
-0.000100772
0.000195646
-0.000170767
0.000235112
-0.000256465
0.000281565
-0.000361629
0.00033921
-0.000489745
0.000411274
-0.000643258
0.000499232
-0.000822786
0.000602295
-0.00102647
0.000717226
-0.00124973
0.000838598
-0.00148565
0.000959582
-0.0017261
0.00107315
-0.00196312
0.0011733
-0.00219013
0.00125587
-0.00240247
0.00131873
-0.00259735
0.00136143
-0.00277356
0.00138476
-0.00293095
0.00139022
-0.00307007
0.00137971
-0.00319187
0.00135524
-0.00329755
0.00131882
-0.0033884
0.00127236
-0.00346576
0.00121762
-0.003531
0.00115618
-0.00358542
0.00108944
-0.0036303
0.00101858
-0.00366683
0.000944609
-0.00369611
0.000868347
-0.00371914
0.000790431
-0.00373683
0.000711339
-0.00374998
0.000631405
-0.00375929
0.000550833
-0.00376537
0.000469721
-0.00376875
0.000388068
-0.00376986
0.000305794
-0.00376909
0.000222744
-0.00376678
0.000138686
-0.00376326
5.32805e-05
-0.0037588
-3.34198e-05
-0.00375323
-0.000121282
-0.00374675
-0.000211344
-0.00373943
-0.000303726
-0.00373124
-0.000398642
-0.00372199
-0.000496273
-0.00371136
-0.000596737
-0.00369885
-0.000700045
-0.0036837
-0.000806061
-0.00366488
-0.000914441
-0.00364099
-0.00102458
-0.00361028
-0.0011355
-0.00357056
-0.00124585
-0.00351927
-0.00135371
-0.00345352
-0.00145662
-0.00337019
-0.0015515
-0.00326621
-0.00163468
-0.00313878
-0.00170199
-0.00298583
-0.00174896
-0.00280637
-0.00177113
-0.00260099
-0.0017645
-0.00237212
-0.00172603
-0.00212438
-0.00165418
-0.0018645
-0.00154952
-0.00160084
-0.00141509
-0.00134259
-0.00125645
-0.0010986
-0.00108131
-0.000876087
-0.000898615
-0.000679591
-0.000717355
-0.000510508
-0.000545146
-0.000367478
-0.000387227
-0.000247394
-0.000246192
-0.000146681
-0.000122544
-6.25881e-05
-1.55603e-05
7.03559e-06
7.5125e-05
6.2989e-05
0.000150277
0.000105801
0.000209736
0.000135729
0.000253599
0.000153317
0.000282281
0.000159596
0.000296867
0.000156084
0.000299141
0.000144655
0.000291403
0.000127349
0.000276133
0.000106188
0.000255583
8.30622e-05
0.000231364
5.97116e-05
0.000204083
3.78057e-05
0.000173118
1.91048e-05
0.000136634
5.66113e-06
9.1874e-05
3.57086e-05
8.73677e-06
-3.57603e-05
3.10102e-05
-0.000113962
5.98011e-05
-0.000174596
8.73804e-05
-0.000204213
0.000107551
-0.000200098
0.000116745
-0.000167826
0.000113816
-0.000116686
9.92269e-05
-5.60265e-05
7.41823e-05
6.71754e-06
3.98463e-05
6.6814e-05
-3.04343e-06
0.000121985
-5.49131e-05
0.000172647
-0.000116959
0.000220844
-0.000191719
0.000270406
-0.000282658
0.000326051
-0.000393706
0.000392613
-0.000528519
0.000474023
-0.000689545
0.0005723
-0.000877104
0.000686791
-0.00108871
0.000813898
-0.00131892
0.00094744
-0.00156
0.00107968
-0.00180321
0.00120279
-0.00204035
0.00131029
-0.00226495
0.00139789
-0.00247261
0.00146354
-0.00266094
0.00150706
-0.00282904
0.00152953
-0.00297704
0.00153275
-0.0031057
0.00151888
-0.00321619
0.00149019
-0.00330988
0.00144893
-0.0033883
0.00139724
-0.00345301
0.00133707
-0.00350559
0.0012702
-0.00354757
0.00119817
-0.00358044
0.0011223
-0.00360554
0.00104368
-0.00362415
0.000963214
-0.00363737
0.000881569
-0.00364619
0.000799254
-0.00365147
0.000716615
-0.00365393
0.000633861
-0.00365418
0.000551084
-0.00365274
0.000468282
-0.00365004
0.000385372
-0.00364645
0.000302201
-0.00364227
0.000218563
-0.00363779
0.000134207
-0.00363335
4.88376e-05
-0.00362914
-3.76312e-05
-0.00362502
-0.000125399
-0.00362129
-0.000215077
-0.00361811
-0.000306906
-0.00361557
-0.000401173
-0.00361372
-0.000498131
-0.00361245
-0.000598001
-0.00361157
-0.000700929
-0.00361066
-0.000806974
-0.00360905
-0.000916045
-0.00360576
-0.00102786
-0.00359939
-0.00114188
-0.00358805
-0.00125719
-0.00356932
-0.00137244
-0.00354021
-0.00148573
-0.00349722
-0.0015945
-0.00343642
-0.00169548
-0.00335373
-0.00178468
-0.00324523
-0.00185745
-0.00310765
-0.00190871
-0.0029389
-0.00193325
-0.00273866
-0.00192626
-0.00250892
-0.00188393
-0.0022543
-0.00180414
-0.00198226
-0.00168714
-0.00170255
-0.00153616
-0.0014263
-0.00135756
-0.00116454
-0.00116037
-0.00092651
-0.000955387
-0.000718166
-0.00075349
-0.000541482
-0.000563911
-0.00039483
-0.000392844
-0.000274315
-0.000243059
-0.000175298
-0.000114577
-9.42566e-05
-5.91635e-06
-2.81112e-05
8.41314e-05
2.44955e-05
0.000157129
6.438e-05
0.000213715
9.21779e-05
0.000254483
0.000108625
0.000280421
0.000114831
0.000292935
0.000112277
0.000293957
0.000102718
0.000285691
8.80501e-05
0.000270251
7.0192e-05
0.000249222
5.10306e-05
0.000223244
3.24345e-05
0.000191714
1.63233e-05
0.000152745
4.75773e-06
0.00010344
4.04663e-05
1.01317e-05
-4.5892e-05
3.44225e-05
-0.000138253
6.38683e-05
-0.000204042
8.95255e-05
-0.00022987
0.000105021
-0.000215593
0.000107302
-0.000170107
9.59483e-05
-0.000105332
7.20252e-05
-3.21034e-05
3.69549e-05
4.17878e-05
-8.05495e-06
0.000111824
-6.29099e-05
0.00017684
-0.000128426
0.000238163
-0.00020689
0.000299308
-0.000301651
0.000365167
-0.000416688
0.000441088
-0.000555774
0.000531698
-0.000721415
0.000639664
-0.00091379
0.000764675
-0.00113002
0.00090302
-0.00136409
0.00104797
-0.00160767
0.00119101
-0.00185154
0.00132356
-0.00208732
0.00143856
-0.0023085
0.00153147
-0.00251087
0.00160027
-0.00269227
0.00164494
-0.00285202
0.0016668
-0.00299043
0.00166795
-0.00310849
0.00165081
-0.00320754
0.00161794
-0.00328922
0.00157187
-0.00335527
0.00151498
-0.00340751
0.00144948
-0.00344778
0.00137734
-0.00347783
0.00130025
-0.00349934
0.00121967
-0.00351383
0.00113678
-0.00352266
0.00105252
-0.00352704
0.000967589
-0.00352797
0.000882507
-0.00352633
0.000797611
-0.00352281
0.000713095
-0.00351799
0.000629036
-0.00351231
0.000545412
-0.00350616
0.000462131
-0.00349982
0.000379033
-0.00349354
0.000295915
-0.00348751
0.000212537
-0.00348195
0.000128647
-0.00347712
4.39991e-05
-0.0034731
-4.16513e-05
-0.00346988
-0.000128609
-0.00346775
-0.000217213
-0.00346689
-0.000307763
-0.0034675
-0.000400561
-0.00346975
-0.000495882
-0.00347376
-0.00059399
-0.00347959
-0.000695106
-0.00348716
-0.000799403
-0.00349623
-0.000906974
-0.0035063
-0.00101779
-0.00351653
-0.00113165
-0.00352561
-0.0012481
-0.00353169
-0.00136636
-0.00353224
-0.00148518
-0.00352401
-0.00160272
-0.00350303
-0.00171646
-0.00346468
-0.00182303
-0.00340391
-0.00191822
-0.00331565
-0.00199697
-0.00319532
-0.00205358
-0.00303953
-0.00208205
-0.00284684
-0.00207662
-0.00261848
-0.0020325
-0.00235887
-0.00194675
-0.00207597
-0.00181906
-0.0017809
-0.00165262
-0.00148682
-0.00145445
-0.00120717
-0.00123504
-0.000953479
-0.00100718
-0.00073337
-0.00078402
-0.000549506
-0.000576709
-0.000399997
-0.000392568
-0.00028005
-0.000234524
-0.000183945
-0.000102021
-0.000107159
7.34523e-06
-4.5887e-05
9.58572e-05
1.89007e-06
0.000165938
3.73947e-05
0.000218979
6.1615e-05
0.0002562
7.55237e-05
0.000279026
8.03357e-05
0.000289145
7.7544e-05
0.000288483
6.88639e-05
0.000278931
5.61489e-05
0.000261937
4.13213e-05
0.000238072
2.63341e-05
0.000206701
1.31534e-05
0.000165926
3.74073e-06
0.000112852
4.42071e-05
1.14492e-05
-5.73412e-05
3.7096e-05
-0.000163899
6.58611e-05
-0.000232807
8.78521e-05
-0.000251861
9.69107e-05
-0.000224652
9.07765e-05
-0.000163973
6.98251e-05
-8.43804e-05
3.56814e-05
2.04029e-06
-1.01945e-05
8.76637e-05
-6.69798e-05
0.000168609
-0.000135013
0.000244873
-0.000216118
0.000319268
-0.000313378
0.000396568
-0.000430678
0.000482468
-0.000571847
0.000582256
-0.000739493