/*--------------------------------*- C++ -*----------------------------------*\
  =========                 |
  \\      /  F ield         | OpenFOAM: The Open Source CFD Toolbox
   \\    /   O peration     | Website:  https://openfoam.org
    \\  /    A nd           | Version:  7
     \\/     M anipulation  |
\*---------------------------------------------------------------------------*/
FoamFile
{
    version     2.0;
    format      ascii;
    class       volVectorField;
    location    "49.9";
    object      U;
}
// * * * * * * * * * * * * * * * * * * * * * * * * * * * * * * * * * * * * * //

dimensions      [0 1 -1 0 0 0 0];

internalField   nonuniform List<vector> 
10000
(
(-6.36486e-05 6.32477e-05 0)
(-0.000176625 6.01932e-05 0)
(-0.000190652 1.4648e-05 0)
(-4.23494e-05 -3.39167e-05 0)
(0.000238769 -6.87712e-05 0)
(0.000595758 -8.46e-05 0)
(0.000964487 -8.10898e-05 0)
(0.00129114 -6.32955e-05 0)
(0.0015378 -3.81526e-05 0)
(0.00168744 -1.24724e-05 0)
(0.00174301 8.21665e-06 0)
(0.00172287 2.02421e-05 0)
(0.00165498 2.21671e-05 0)
(0.00157143 1.39918e-05 0)
(0.00150355 -2.98279e-06 0)
(0.00147766 -2.65293e-05 0)
(0.00151189 -5.38185e-05 0)
(0.00161423 -8.17903e-05 0)
(0.00178198 -0.000107398 0)
(0.00200215 -0.000127956 0)
(0.00225346 -0.000141627 0)
(0.00250928 -0.000147705 0)
(0.00274055 -0.000146762 0)
(0.00291871 -0.000140533 0)
(0.00301698 -0.000129422 0)
(0.00301052 -0.000114647 0)
(0.00287665 -9.73605e-05 0)
(0.00259459 -7.87587e-05 0)
(0.0021429 -5.76636e-05 0)
(0.00149806 -3.33812e-05 0)
(0.000634274 -4.20319e-06 0)
(-0.000476944 3.19227e-05 0)
(-0.00186568 7.67441e-05 0)
(-0.0035616 0.000131546 0)
(-0.00559144 0.000196668 0)
(-0.00797665 0.000271621 0)
(-0.0107309 0.000355795 0)
(-0.0138577 0.000449447 0)
(-0.017348 0.000554316 0)
(-0.0211794 0.000673007 0)
(-0.0253158 0.000806444 0)
(-0.0297088 0.000950838 0)
(-0.0342965 0.00110059 0)
(-0.0390052 0.00124822 0)
(-0.0437499 0.00138397 0)
(-0.0484358 0.0014967 0)
(-0.0529601 0.00157501 0)
(-0.0572148 0.0016085 0)
(-0.0610891 0.00158967 0)
(-0.0644727 0.00151612 0)
(-0.0672592 0.00138991 0)
(-0.0693487 0.00120917 0)
(-0.0706498 0.000967863 0)
(-0.0710795 0.000675296 0)
(-0.0705626 0.000359364 0)
(-0.0689987 -2.16448e-05 0)
(-0.0663974 -0.00045232 0)
(-0.0627491 -0.000898276 0)
(-0.0580472 -0.00134495 0)
(-0.0523348 -0.0017758 0)
(-0.0456861 -0.0021729 0)
(-0.038211 -0.00251678 0)
(-0.030056 -0.00278767 0)
(-0.021405 -0.00296677 0)
(-0.0124713 -0.0030381 0)
(-0.00347673 -0.00299324 0)
(0.00530778 -0.00284141 0)
(0.0136115 -0.00254684 0)
(0.0211966 -0.0021475 0)
(0.027822 -0.00165817 0)
(0.0332898 -0.00110817 0)
(0.0374623 -0.000528396 0)
(0.0402593 4.27367e-05 0)
(0.0416722 0.000560781 0)
(0.0417648 0.000985435 0)
(0.040667 0.00129857 0)
(0.0385561 0.00150438 0)
(0.0356424 0.00159173 0)
(0.0321639 0.00156639 0)
(0.0283672 0.00145375 0)
(0.0244817 0.00128626 0)
(0.0207 0.00109425 0)
(0.0171686 0.000901465 0)
(0.0139846 0.000723399 0)
(0.011199 0.00056791 0)
(0.00882408 0.000437314 0)
(0.00684372 0.000330677 0)
(0.00522339 0.000245472 0)
(0.00391904 0.000178659 0)
(0.00288344 0.000127289 0)
(0.00207033 8.87405e-05 0)
(0.00143689 6.0746e-05 0)
(0.000945437 4.12383e-05 0)
(0.00056475 2.79391e-05 0)
(0.000271666 1.79475e-05 0)
(5.31069e-05 7.55572e-06 0)
(-9.2471e-05 -7.16412e-06 0)
(-0.000157189 -2.78629e-05 0)
(-0.000133093 -4.83889e-05 0)
(-4.91437e-05 -4.82892e-05 0)
(-6.5639e-05 0.000176277 0)
(-0.000105924 8.50306e-05 0)
(0.000108584 -0.000159481 0)
(0.000635126 -0.000413771 0)
(0.0014126 -0.000596263 0)
(0.00233048 -0.000674112 0)
(0.00326182 -0.000646092 0)
(0.00409421 -0.000534643 0)
(0.00474634 -0.00037367 0)
(0.0051764 -0.000199044 0)
(0.0053815 -4.1972e-05 0)
(0.00539124 7.47735e-05 0)
(0.00525679 0.000138119 0)
(0.00504017 0.000145331 0)
(0.00480413 0.00010154 0)
(0.00460226 1.82249e-05 0)
(0.00447119 -8.86819e-05 0)
(0.00442592 -0.000200377 0)
(0.00445814 -0.000297966 0)
(0.00453689 -0.000364812 0)
(0.00461213 -0.000388474 0)
(0.00461998 -0.000361464 0)
(0.00448819 -0.000280895 0)
(0.00414336 -0.000146967 0)
(0.00351127 3.57386e-05 0)
(0.0025159 0.000263698 0)
(0.00108264 0.000534629 0)
(-0.00085947 0.000848179 0)
(-0.00338273 0.00120647 0)
(-0.00656096 0.00161332 0)
(-0.0104646 0.00207282 0)
(-0.0151595 0.00258759 0)
(-0.0207006 0.00315692 0)
(-0.0271242 0.00377629 0)
(-0.0344399 0.00443726 0)
(-0.0426225 0.0051274 0)
(-0.0516062 0.00582926 0)
(-0.0612828 0.0065188 0)
(-0.0715045 0.00716555 0)
(-0.0820913 0.00773606 0)
(-0.0928413 0.00820028 0)
(-0.103537 0.00853587 0)
(-0.113954 0.00872157 0)
(-0.123877 0.00873959 0)
(-0.133114 0.00857809 0)
(-0.141492 0.00823075 0)
(-0.148858 0.0076964 0)
(-0.155083 0.00697846 0)
(-0.160051 0.00608405 0)
(-0.163671 0.00502136 0)
(-0.16587 0.00379654 0)
(-0.166599 0.00241839 0)
(-0.165805 0.000909616 0)
(-0.16344 -0.000685243 0)
(-0.159514 -0.00235355 0)
(-0.153994 -0.00409239 0)
(-0.146896 -0.00585756 0)
(-0.138262 -0.00760695 0)
(-0.128152 -0.0093009 0)
(-0.116657 -0.0108908 0)
(-0.103895 -0.0123257 0)
(-0.0900181 -0.013551 0)
(-0.0752162 -0.0145119 0)
(-0.0597148 -0.0151561 0)
(-0.0437729 -0.0154376 0)
(-0.0276697 -0.015325 0)
(-0.0117064 -0.0148154 0)
(0.00376666 -0.0138795 0)
(0.0184152 -0.0125481 0)
(0.0319303 -0.010838 0)
(0.0440096 -0.00885208 0)
(0.0544045 -0.00666425 0)
(0.0628998 -0.004372 0)
(0.0693439 -0.00208272 0)
(0.0736693 0.000109727 0)
(0.0759011 0.00210015 0)
(0.0760979 0.00378292 0)
(0.0743689 0.00512387 0)
(0.0709295 0.0060719 0)
(0.0660745 0.00660889 0)
(0.0601523 0.00675838 0)
(0.053545 0.00657585 0)
(0.0466398 0.00613785 0)
(0.0397935 0.00552997 0)
(0.0332999 0.00483415 0)
(0.0273686 0.00411881 0)
(0.0221213 0.00343411 0)
(0.0176015 0.00281147 0)
(0.0137932 0.00226663 0)
(0.010641 0.00180444 0)
(0.00806793 0.00142263 0)
(0.0059889 0.00111445 0)
(0.00432065 0.000870054 0)
(0.00298893 0.000676596 0)
(0.00193398 0.000517909 0)
(0.00111503 0.000375017 0)
(0.000512561 0.000229661 0)
(0.00012391 7.41261e-05 0)
(-5.53311e-05 -7.19993e-05 0)
(-4.70966e-05 -0.00013542 0)
(-3.80099e-05 0.00021593 0)
(7.95843e-05 -0.000110572 0)
(0.00060039 -0.000708462 0)
(0.00151739 -0.0013012 0)
(0.00274207 -0.00171715 0)
(0.00412278 -0.00188135 0)
(0.00549324 -0.00179296 0)
(0.00670806 -0.00150191 0)
(0.00766242 -0.00108496 0)
(0.00830078 -0.000625066 0)
(0.00861539 -0.0001962 0)
(0.0086381 0.000145996 0)
(0.00842912 0.000367912 0)
(0.00806288 0.000459164 0)
(0.00761358 0.000429893 0)
(0.0071433 0.000307212 0)
(0.00669173 0.00013073 0)
(0.00626864 -5.26125e-05 0)
(0.00585081 -0.000194906 0)
(0.00538362 -0.000253131 0)
(0.00478606 -0.000194055 0)
(0.00395774 4.20949e-06 0)
(0.00278577 0.000353156 0)
(0.00114779 0.000856904 0)
(-0.00108098 0.0015121 0)
(-0.00402445 0.00231514 0)
(-0.00780709 0.00326384 0)
(-0.0125494 0.00435852 0)
(-0.0183665 0.00559917 0)
(-0.0253616 0.00698691 0)
(-0.0336145 0.00851796 0)
(-0.043169 0.0101799 0)
(-0.0540163 0.0119467 0)
(-0.0660791 0.0137736 0)
(-0.0792034 0.0155944 0)
(-0.0931607 0.0173247 0)
(-0.107665 0.0188717 0)
(-0.122396 0.0201467 0)
(-0.13703 0.0210774 0)
(-0.151263 0.0216154 0)
(-0.164823 0.0217399 0)
(-0.177492 0.0214535 0)
(-0.189093 0.0207691 0)
(-0.199487 0.0197089 0)
(-0.20857 0.0183006 0)
(-0.216264 0.0165735 0)
(-0.222515 0.0145564 0)
(-0.227284 0.0122763 0)
(-0.230548 0.00975828 0)
(-0.232295 0.00702588 0)
(-0.232515 0.00410501 0)
(-0.231199 0.00102914 0)
(-0.228331 -0.00216698 0)
(-0.223915 -0.00546622 0)
(-0.21798 -0.008844 0)
(-0.210527 -0.012243 0)
(-0.201579 -0.0156221 0)
(-0.191165 -0.0189332 0)
(-0.179332 -0.0221114 0)
(-0.166147 -0.0250839 0)
(-0.151701 -0.0277698 0)
(-0.13611 -0.030082 0)
(-0.119522 -0.0319313 0)
(-0.10212 -0.0332305 0)
(-0.084118 -0.0339003 0)
(-0.0657601 -0.0338777 0)
(-0.0473203 -0.033127 0)
(-0.0290955 -0.0316399 0)
(-0.0113742 -0.0294121 0)
(0.00548229 -0.0264993 0)
(0.0211773 -0.0229891 0)
(0.0354749 -0.0189997 0)
(0.0481198 -0.0146778 0)
(0.0589239 -0.0101929 0)
(0.067729 -0.00568518 0)
(0.0744011 -0.00133192 0)
(0.0789157 0.00269323 0)
(0.0812868 0.00623493 0)
(0.0815109 0.00920888 0)
(0.0797122 0.0115187 0)
(0.0760969 0.0130954 0)
(0.0709455 0.0139206 0)
(0.0646134 0.0140335 0)
(0.0575123 0.0135298 0)
(0.0500711 0.0125505 0)
(0.0426889 0.0112592 0)
(0.0356907 0.00981434 0)
(0.029303 0.00834944 0)
(0.0236518 0.00696212 0)
(0.018777 0.00571302 0)
(0.0146547 0.00463129 0)
(0.0112204 0.00372235 0)
(0.00838998 0.0029746 0)
(0.00607579 0.00236356 0)
(0.00419894 0.00185424 0)
(0.00269851 0.00140438 0)
(0.00153755 0.000972819 0)
(0.000699514 0.000538408 0)
(0.000171669 0.000128918 0)
(-8.45693e-06 -0.000139321 0)
(-9.60411e-06 0.000141334 0)
(0.000273228 -0.000556569 0)
(0.00110547 -0.0015965 0)
(0.00239011 -0.0025716 0)
(0.00400003 -0.00322769 0)
(0.00574581 -0.00345447 0)
(0.00743094 -0.00325803 0)
(0.00889086 -0.0027237 0)
(0.0100116 -0.0019778 0)
(0.0107353 -0.00115531 0)
(0.011056 -0.000376432 0)
(0.0110086 0.000268039 0)
(0.0106558 0.000723467 0)
(0.0100731 0.000971888 0)
(0.00933308 0.00103042 0)
(0.00849126 0.000945893 0)
(0.00757396 0.000787625 0)
(0.00656984 0.000637559 0)
(0.00542711 0.000579501 0)
(0.00405539 0.000689689 0)
(0.00233223 0.00102762 0)
(0.000111941 0.00163395 0)
(-0.00276647 0.0025315 0)
(-0.00647326 0.00372964 0)
(-0.0111813 0.00523112 0)
(-0.0170604 0.00703262 0)
(-0.0242713 0.00912805 0)
(-0.0329546 0.0115079 0)
(-0.0432163 0.0141555 0)
(-0.0551052 0.0170406 0)
(-0.0685859 0.0201075 0)
(-0.083517 0.0232639 0)
(-0.0996433 0.0263779 0)
(-0.116612 0.0292903 0)
(-0.134012 0.0318397 0)
(-0.151423 0.0338892 0)
(-0.16846 0.0353441 0)
(-0.184799 0.036156 0)
(-0.200186 0.0363172 0)
(-0.214432 0.0358505 0)
(-0.227408 0.0347968 0)
(-0.239034 0.0332061 0)
(-0.249267 0.0311341 0)
(-0.258089 0.0286362 0)
(-0.2655 0.0257634 0)
(-0.271508 0.0225605 0)
(-0.27613 0.0190655 0)
(-0.279381 0.0153106 0)
(-0.281274 0.0113241 0)
(-0.281816 0.00713622 0)
(-0.281009 0.00278258 0)
(-0.278859 -0.00170418 0)
(-0.275382 -0.00631601 0)
(-0.270558 -0.0110389 0)
(-0.264388 -0.0158326 0)
(-0.256852 -0.020653 0)
(-0.247952 -0.0254447 0)
(-0.237683 -0.0301439 0)
(-0.226057 -0.0346725 0)
(-0.213097 -0.0389398 0)
(-0.198849 -0.0428416 0)
(-0.183382 -0.0462634 0)
(-0.166795 -0.049084 0)
(-0.149223 -0.0511819 0)
(-0.130838 -0.0524426 0)
(-0.111846 -0.052769 0)
(-0.0924924 -0.0520922 0)
(-0.0730487 -0.0503759 0)
(-0.0538081 -0.0476276 0)
(-0.0350928 -0.0439196 0)
(-0.0171855 -0.0393096 0)
(-0.000376811 -0.0339679 0)
(0.0150666 -0.0280711 0)
(0.0289649 -0.0218261 0)
(0.0411544 -0.0154187 0)
(0.0514912 -0.00907988 0)
(0.0598781 -0.00296464 0)
(0.0662941 0.00271857 0)
(0.0707167 0.0078035 0)
(0.0730905 0.0121572 0)
(0.0734478 0.0156495 0)
(0.0718921 0.0181734 0)
(0.0686048 0.0196752 0)
(0.0638577 0.0201717 0)
(0.0580064 0.0197602 0)
(0.0514592 0.0186101 0)
(0.0446307 0.0169366 0)
(0.0378924 0.0149652 0)
(0.0315341 0.012899 0)
(0.0257468 0.0108951 0)
(0.0206277 0.00905819 0)
(0.0161986 0.0074436 0)
(0.0124299 0.00606614 0)
(0.0092625 0.00490822 0)
(0.00662774 0.0039269 0)
(0.00446329 0.0030615 0)
(0.00272645 0.00224687 0)
(0.00139657 0.00143943 0)
(0.000458393 0.000656145 0)
(4.22639e-05 1.69475e-05 0)
(1.15953e-05 -3.37425e-05 0)
(0.000446742 -0.00124272 0)
(0.00157408 -0.00280694 0)
(0.00319435 -0.00419531 0)
(0.00513169 -0.0050762 0)
(0.00715339 -0.00531535 0)
(0.00903427 -0.00493932 0)
(0.0105982 -0.00408131 0)
(0.0117331 -0.00292603 0)
(0.0123896 -0.00166486 0)
(0.0125719 -0.000464711 0)
(0.0123219 0.000550206 0)
(0.0117041 0.00130695 0)
(0.0107888 0.0017855 0)
(0.0096363 0.00201581 0)
(0.00828128 0.00207108 0)
(0.00672007 0.00205774 0)
(0.0049022 0.00210097 0)
(0.00273002 0.00232721 0)
(6.19787e-05 0.0028519 0)
(-0.00327826 0.00376367 0)
(-0.00748971 0.00512377 0)
(-0.012784 0.00696763 0)
(-0.019375 0.00930994 0)
(-0.0274673 0.0121499 0)
(-0.0372411 0.0154723 0)
(-0.0488317 0.0192451 0)
(-0.0622994 0.0234122 0)
(-0.0775949 0.0278781 0)
(-0.0945287 0.0324943 0)
(-0.112764 0.0370562 0)
(-0.131848 0.0413251 0)
(-0.151272 0.0450683 0)
(-0.170543 0.0480985 0)
(-0.189238 0.0502952 0)
(-0.207028 0.0516057 0)
(-0.223679 0.0520338 0)
(-0.239044 0.0516237 0)
(-0.253044 0.050444 0)
(-0.265649 0.0485751 0)
(-0.276865 0.0460989 0)
(-0.286718 0.0430936 0)
(-0.295246 0.0396307 0)
(-0.302493 0.0357731 0)
(-0.308498 0.0315738 0)
(-0.313302 0.0270759 0)
(-0.316934 0.0223136 0)
(-0.319418 0.0173139 0)
(-0.320764 0.0121003 0)
(-0.320971 0.00669589 0)
(-0.320037 0.00112212 0)
(-0.317971 -0.00460969 0)
(-0.314771 -0.0104916 0)
(-0.310401 -0.0164903 0)
(-0.304837 -0.0225784 0)
(-0.298042 -0.0287099 0)
(-0.289988 -0.0348312 0)
(-0.280641 -0.0408696 0)
(-0.269979 -0.0467372 0)
(-0.257984 -0.0523266 0)
(-0.244656 -0.0575131 0)
(-0.230016 -0.0621555 0)
(-0.214111 -0.0661006 0)
(-0.197025 -0.0691892 0)
(-0.178881 -0.0712663 0)
(-0.159846 -0.0721926 0)
(-0.140133 -0.0718596 0)
(-0.120001 -0.0702001 0)
(-0.0997462 -0.0672037 0)
(-0.0796937 -0.0629257 0)
(-0.0601695 -0.0574738 0)
(-0.0414947 -0.0510351 0)
(-0.0239517 -0.0438202 0)
(-0.00774699 -0.0360703 0)
(0.00690286 -0.0280483 0)
(0.0198905 -0.0199819 0)
(0.0311871 -0.0120847 0)
(0.0407172 -0.00452175 0)
(0.0484717 0.00249927 0)
(0.0544231 0.00880731 0)
(0.0585219 0.0142498 0)
(0.0607451 0.0186693 0)
(0.0611208 0.0219358 0)
(0.0597469 0.0239731 0)
(0.0568141 0.0247877 0)
(0.052606 0.0244832 0)
(0.0474774 0.0232533 0)
(0.0418122 0.0213506 0)
(0.0359748 0.0190448 0)
(0.0302698 0.0165824 0)
(0.0249198 0.0141599 0)
(0.0200616 0.011911 0)
(0.0157577 0.00990749 0)
(0.0120156 0.0081655 0)
(0.00880903 0.00665488 0)
(0.00609975 0.00530978 0)
(0.00385818 0.00404578 0)
(0.00207404 0.00279031 0)
(0.000740982 0.00152702 0)
(9.26661e-05 0.000342968 0)
(2.88773e-05 -0.000296553 0)
(0.000608927 -0.00215286 0)
(0.00202067 -0.00431822 0)
(0.00395189 -0.00613273 0)
(0.0061663 -0.00719516 0)
(0.00838052 -0.00736425 0)
(0.0103408 -0.00670762 0)
(0.0118662 -0.00542414 0)
(0.0128562 -0.0037681 0)
(0.0132806 -0.00199113 0)
(0.0131612 -0.000304753 0)
(0.0125515 0.00113969 0)
(0.0115172 0.0022596 0)
(0.0101184 0.00304239 0)
(0.00839213 0.00354122 0)
(0.00633702 0.00386604 0)
(0.0039015 0.00417083 0)
(0.000976471 0.00463314 0)
(-0.0025985 0.00542859 0)
(-0.00703015 0.0067114 0)
(-0.0125568 0.00859943 0)
(-0.0194277 0.0111697 0)
(-0.0278898 0.0144604 0)
(-0.0381665 0.0184746 0)
(-0.0504311 0.0231798 0)
(-0.0647713 0.0285012 0)
(-0.0811472 0.034308 0)
(-0.0993535 0.0403976 0)
(-0.119008 0.0464945 0)
(-0.139589 0.0522789 0)
(-0.16051 0.0574386 0)
(-0.181212 0.0617219 0)
(-0.201227 0.0649665 0)
(-0.220207 0.0671009 0)
(-0.237924 0.0681289 0)
(-0.254253 0.0681072 0)
(-0.269144 0.0671237 0)
(-0.282603 0.065282 0)
(-0.294669 0.0626892 0)
(-0.3054 0.0594481 0)
(-0.314861 0.0556524 0)
(-0.323118 0.0513844 0)
(-0.330234 0.0467141 0)
(-0.336262 0.0416992 0)
(-0.341251 0.0363857 0)
(-0.345241 0.0308088 0)
(-0.348263 0.0249951 0)
(-0.350335 0.0189644 0)
(-0.351466 0.0127315 0)
(-0.351654 0.00630649 0)
(-0.350903 -0.000307142 0)
(-0.349212 -0.0071094 0)
(-0.346575 -0.0140793 0)
(-0.342948 -0.0211995 0)
(-0.338303 -0.0284413 0)
(-0.332588 -0.0357668 0)
(-0.325759 -0.0431223 0)
(-0.317757 -0.0504366 0)
(-0.30853 -0.0576159 0)
(-0.298021 -0.0645445 0)
(-0.286183 -0.0710814 0)
(-0.272978 -0.0770634 0)
(-0.258392 -0.0823068 0)
(-0.242438 -0.0866148 0)
(-0.225169 -0.0897879 0)
(-0.206687 -0.0916373 0)
(-0.187148 -0.0920018 0)
(-0.166774 -0.0907653 0)
(-0.145848 -0.087875 0)
(-0.124706 -0.0833569 0)
(-0.103723 -0.0773222 0)
(-0.0832845 -0.0699706 0)
(-0.0637568 -0.0615668 0)
(-0.0454517 -0.0524215 0)
(-0.0286209 -0.0428752 0)
(-0.0134002 -0.0331865 0)
(0.000150871 -0.0236461 0)
(0.0120224 -0.014452 0)
(0.0222367 -0.00575888 0)
(0.0308247 0.0022568 0)
(0.0377838 0.00945161 0)
(0.0430751 0.0156551 0)
(0.0466605 0.0207075 0)
(0.0485229 0.0244662 0)
(0.0487065 0.02685 0)
(0.0473412 0.0278695 0)
(0.0446495 0.0276431 0)
(0.0409288 0.0263852 0)
(0.0365166 0.0243723 0)
(0.0317463 0.0218979 0)
(0.0269106 0.0192303 0)
(0.0222367 0.0165825 0)
(0.0178796 0.0140981 0)
(0.0139281 0.0118485 0)
(0.0104201 0.00983759 0)
(0.00736268 0.00801148 0)
(0.00475886 0.00627597 0)
(0.00262426 0.00452797 0)
(0.000973145 0.0027019 0)
(0.000134327 0.000819326 0)
(4.70042e-05 -0.000644626 0)
(0.000777019 -0.00328404 0)
(0.00247547 -0.00611801 0)
(0.00469984 -0.00834936 0)
(0.00714139 -0.00951792 0)
(0.00946105 -0.00949944 0)
(0.0113797 -0.00843062 0)
(0.0127207 -0.00659823 0)
(0.0134058 -0.00433847 0)
(0.0134327 -0.00196559 0)
(0.0128469 0.000269659 0)
(0.0117148 0.00219916 0)
(0.0101005 0.00374423 0)
(0.00804569 0.00491435 0)
(0.00555039 0.00580103 0)
(0.0025604 0.00656527 0)
(-0.00104179 0.00742304 0)
(-0.00544129 0.00860871 0)
(-0.0108768 0.0103493 0)
(-0.0176224 0.0128326 0)
(-0.025965 0.0161939 0)
(-0.0361759 0.0205052 0)
(-0.0484802 0.0257742 0)
(-0.0630156 0.0319397 0)
(-0.0797843 0.0388601 0)
(-0.0986064 0.0462984 0)
(-0.119098 0.0539212 0)
(-0.140702 0.0613274 0)
(-0.162768 0.0681111 0)
(-0.184662 0.0739306 0)
(-0.205847 0.0785531 0)
(-0.225931 0.0818638 0)
(-0.244663 0.0838481 0)
(-0.261912 0.0845623 0)
(-0.277637 0.0841066 0)
(-0.29186 0.0826033 0)
(-0.30464 0.0801809 0)
(-0.316053 0.0769653 0)
(-0.326186 0.073073 0)
(-0.335123 0.0686087 0)
(-0.342945 0.0636631 0)
(-0.349725 0.0583127 0)
(-0.355531 0.0526202 0)
(-0.36042 0.0466352 0)
(-0.364443 0.0403954 0)
(-0.367644 0.0339286 0)
(-0.370058 0.027254 0)
(-0.371711 0.0203835 0)
(-0.372617 0.013322 0)
(-0.372789 0.00606666 0)
(-0.372237 -0.00139038 0)
(-0.370955 -0.00905077 0)
(-0.36894 -0.0169036 0)
(-0.366157 -0.0249411 0)
(-0.362576 -0.0331429 0)
(-0.358146 -0.0414814 0)
(-0.35281 -0.0499107 0)
(-0.346496 -0.0583675 0)
(-0.339125 -0.0667626 0)
(-0.330605 -0.0749812 0)
(-0.320844 -0.082877 0)
(-0.309745 -0.0902734 0)
(-0.297222 -0.0969642 0)
(-0.283207 -0.102719 0)
(-0.267659 -0.107294 0)
(-0.250583 -0.110443 0)
(-0.232044 -0.11194 0)
(-0.212176 -0.111601 0)
(-0.191203 -0.109302 0)
(-0.169435 -0.105012 0)
(-0.147264 -0.0988001 0)
(-0.12514 -0.0908538 0)
(-0.103538 -0.0814654 0)
(-0.0829161 -0.0710108 0)
(-0.0636622 -0.0599084 0)
(-0.046051 -0.0485561 0)
(-0.0302279 -0.0373154 0)
(-0.0162186 -0.0264591 0)
(-0.00396657 -0.0161761 0)
(0.00664556 -0.00660206 0)
(0.0157054 0.00214204 0)
(0.0232451 0.0099204 0)
(0.0292671 0.0165944 0)
(0.0337273 0.0219982 0)
(0.0365955 0.0260046 0)
(0.0378873 0.0285439 0)
(0.0376953 0.0296462 0)
(0.0361973 0.0294511 0)
(0.0336431 0.0281911 0)
(0.0303244 0.026155 0)
(0.0265379 0.0236421 0)
(0.0225514 0.020921 0)
(0.018582 0.0182007 0)
(0.0147882 0.015614 0)
(0.0112733 0.013212 0)
(0.0081003 0.0109669 0)
(0.00531712 0.00878533 0)
(0.0029772 0.00653655 0)
(0.00112412 0.00409801 0)
(0.000161274 0.00140567 0)
(6.96124e-05 -0.00108622 0)
(0.000963971 -0.00464638 0)
(0.00295819 -0.0082021 0)
(0.00545495 -0.0108114 0)
(0.00806276 -0.0119726 0)
(0.010387 -0.0116125 0)
(0.0121322 -0.0099717 0)
(0.0131386 -0.00744975 0)
(0.0133617 -0.00447576 0)
(0.0128339 -0.00142551 0)
(0.0116259 0.00142051 0)
(0.00981419 0.00389262 0)
(0.00745356 0.00593422 0)
(0.00455398 0.00759651 0)
(0.00106186 0.00902942 0)
(-0.00314589 0.0104639 0)
(-0.00827264 0.0121837 0)
(-0.014591 0.0144837 0)
(-0.0224108 0.0176327 0)
(-0.0320527 0.0218337 0)
(-0.0438064 0.0272027 0)
(-0.057884 0.0337531 0)
(-0.0743664 0.0413848 0)
(-0.0931468 0.0498705 0)
(-0.113893 0.0588518 0)
(-0.136057 0.0678635 0)
(-0.158948 0.0763997 0)
(-0.181848 0.0840008 0)
(-0.204129 0.090325 0)
(-0.225312 0.0951757 0)
(-0.245086 0.0984893 0)
(-0.263284 0.100301 0)
(-0.279851 0.100712 0)
(-0.294805 0.0998551 0)
(-0.30821 0.0978789 0)
(-0.320156 0.0949324 0)
(-0.330742 0.0911567 0)
(-0.34007 0.0866812 0)
(-0.348237 0.0816207 0)
(-0.35534 0.0760745 0)
(-0.361464 0.0701269 0)
(-0.36669 0.063847 0)
(-0.371093 0.0572901 0)
(-0.374737 0.0504984 0)
(-0.377682 0.0435026 0)
(-0.37998 0.0363233 0)
(-0.381674 0.0289727 0)
(-0.3828 0.0214548 0)
(-0.383386 0.013765 0)
(-0.383457 0.00589085 0)
(-0.383029 -0.00218202 0)
(-0.382102 -0.0104613 0)
(-0.380674 -0.0189512 0)
(-0.378726 -0.0276537 0)
(-0.376234 -0.0365627 0)
(-0.373153 -0.0456634 0)
(-0.369427 -0.0549258 0)
(-0.364982 -0.0643009 0)
(-0.359726 -0.0737153 0)
(-0.353548 -0.0830664 0)
(-0.34632 -0.0922175 0)
(-0.337899 -0.100995 0)
(-0.328133 -0.109185 0)
(-0.316871 -0.116539 0)
(-0.303973 -0.122777 0)
(-0.289328 -0.127599 0)
(-0.272874 -0.130708 0)
(-0.254618 -0.131833 0)
(-0.234659 -0.130758 0)
(-0.213209 -0.127351 0)
(-0.190604 -0.121595 0)
(-0.167298 -0.113609 0)
(-0.143838 -0.10366 0)
(-0.120822 -0.0921485 0)
(-0.098833 -0.0795716 0)
(-0.0783703 -0.0664638 0)
(-0.0597865 -0.0533319 0)
(-0.0432541 -0.0405905 0)
(-0.0287712 -0.0285274 0)
(-0.0162033 -0.0173093 0)
(-0.00537288 -0.00704629 0)
(0.00389513 0.00219959 0)
(0.011703 0.0103385 0)
(0.0180765 0.0172295 0)
(0.0230041 0.0227579 0)
(0.0264518 0.0268097 0)
(0.0284297 0.0293492 0)
(0.029012 0.030436 0)
(0.0283485 0.0302334 0)
(0.0266538 0.0289874 0)
(0.0241818 0.0269876 0)
(0.0211933 0.024524 0)
(0.0179286 0.0218487 0)
(0.0145888 0.0191462 0)
(0.0113288 0.0165155 0)
(0.0082639 0.0139611 0)
(0.00549 0.0113982 0)
(0.00310311 0.00867405 0)
(0.00118028 0.00560952 0)
(0.000170864 0.00205023 0)
(9.86144e-05 -0.00163515 0)
(0.00117463 -0.00625462 0)
(0.0034695 -0.010563 0)
(0.00620266 -0.0134725 0)
(0.00889402 -0.0144696 0)
(0.011101 -0.0135788 0)
(0.0125276 -0.0111853 0)
(0.0130472 -0.00782514 0)
(0.0126586 -0.00402672 0)
(0.0114322 -0.000220351 0)
(0.00946057 0.00329854 0)
(0.00682121 0.00637892 0)
(0.00354567 0.00900974 0)
(-0.000404272 0.0113097 0)
(-0.00515283 0.0135063 0)
(-0.0109139 0.015914 0)
(-0.0179827 0.0188863 0)
(-0.0267053 0.0227699 0)
(-0.0374329 0.0278442 0)
(-0.0504692 0.034276 0)
(-0.0660063 0.0420883 0)
(-0.084059 0.0511382 0)
(-0.104408 0.0611067 0)
(-0.126579 0.071513 0)
(-0.14989 0.0817727 0)
(-0.173558 0.0912966 0)
(-0.19684 0.0995936 0)
(-0.219135 0.106335 0)
(-0.240024 0.111362 0)
(-0.259266 0.114657 0)
(-0.27676 0.116298 0)
(-0.2925 0.116419 0)
(-0.306544 0.115181 0)
(-0.318981 0.112756 0)
(-0.329921 0.109311 0)
(-0.339479 0.105002 0)
(-0.347774 0.0999727 0)
(-0.354919 0.0943495 0)
(-0.361025 0.0882424 0)
(-0.366197 0.081745 0)
(-0.370532 0.0749349 0)
(-0.374119 0.0678741 0)
(-0.377042 0.0606104 0)
(-0.379373 0.0531785 0)
(-0.381179 0.0456016 0)
(-0.382516 0.0378929 0)
(-0.383435 0.0300569 0)
(-0.383978 0.0220896 0)
(-0.384184 0.0139785 0)
(-0.384082 0.00570416 0)
(-0.383693 -0.00275443 0)
(-0.383023 -0.0114129 0)
(-0.382075 -0.0202866 0)
(-0.380847 -0.0293895 0)
(-0.379325 -0.0387302 0)
(-0.37748 -0.0483096 0)
(-0.375268 -0.0581162 0)
(-0.372626 -0.0681215 0)
(-0.369469 -0.0782746 0)
(-0.365687 -0.0884965 0)
(-0.361141 -0.0986737 0)
(-0.355666 -0.108653 0)
(-0.34907 -0.118235 0)
(-0.341138 -0.127174 0)
(-0.331645 -0.135177 0)
(-0.320368 -0.141915 0)
(-0.307105 -0.147031 0)
(-0.291709 -0.150167 0)
(-0.27411 -0.150997 0)
(-0.254351 -0.14926 0)
(-0.232616 -0.144804 0)
(-0.209257 -0.137619 0)
(-0.18479 -0.127868 0)
(-0.159873 -0.115895 0)
(-0.135247 -0.102215 0)
(-0.111658 -0.0874597 0)
(-0.089759 -0.0723049 0)
(-0.0700151 -0.0573722 0)
(-0.0526505 -0.0431485 0)
(-0.0376477 -0.0299447 0)
(-0.0248124 -0.0179149 0)
(-0.0138659 -0.00709973 0)
(-0.00457605 0.00247276 0)
(0.00324327 0.0107709 0)
(0.00968509 0.0177024 0)
(0.0147446 0.0231705 0)
(0.018421 0.0271201 0)
(0.0207273 0.0295499 0)
(0.0217353 0.0305546 0)
(0.0215806 0.03032 0)
(0.0204536 0.0290976 0)
(0.0185781 0.0271679 0)
(0.0161846 0.0247984 0)
(0.0134879 0.0222066 0)
(0.010674 0.0195287 0)
(0.007898 0.0167996 0)
(0.00529826 0.0139455 0)
(0.00301076 0.0107972 0)
(0.00114471 0.00712675 0)
(0.000163744 0.00269888 0)
(0.000134705 -0.00230619 0)
(0.00140638 -0.00811853 0)
(0.00399137 -0.0131775 0)
(0.00689881 -0.0162618 0)
(0.00956225 -0.016894 0)
(0.0115078 -0.0152553 0)
(0.0124606 -0.0119187 0)
(0.0123436 -0.00757523 0)
(0.0112066 -0.00285083 0)
(0.00915468 0.001784 0)
(0.00629214 0.006041 0)
(0.00268334 0.00981234 0)
(-0.00167981 0.0131654 0)
(-0.0069066 0.0163041 0)
(-0.0132116 0.0195528 0)
(-0.0209013 0.0233128 0)
(-0.0303475 0.0279983 0)
(-0.0419296 0.0339658 0)
(-0.0559637 0.0414405 0)
(-0.0726227 0.0504619 0)
(-0.0918597 0.06085 0)
(-0.113355 0.0721994 0)
(-0.136516 0.083917 0)
(-0.160556 0.0953137 0)
(-0.184633 0.105732 0)
(-0.207994 0.114657 0)
(-0.230068 0.121776 0)
(-0.250488 0.126963 0)
(-0.269065 0.130237 0)
(-0.285743 0.13171 0)
(-0.30055 0.131546 0)
(-0.313568 0.129933 0)
(-0.324909 0.127063 0)
(-0.334699 0.123121 0)
(-0.343072 0.118283 0)
(-0.350165 0.112707 0)
(-0.356111 0.106534 0)
(-0.361042 0.0998868 0)
(-0.365079 0.0928689 0)
(-0.368339 0.085567 0)
(-0.370927 0.0780504 0)
(-0.372939 0.0703723 0)
(-0.37446 0.0625713 0)
(-0.375564 0.0546732 0)
(-0.376316 0.0466924 0)
(-0.376773 0.0386336 0)
(-0.376981 0.0304931 0)
(-0.376986 0.0222594 0)
(-0.376825 0.0139142 0)
(-0.376531 0.00543373 0)
(-0.376123 -0.00320703 0)
(-0.375609 -0.0120306 0)
(-0.374999 -0.0210625 0)
(-0.374307 -0.0303265 0)
(-0.373529 -0.0398438 0)
(-0.372658 -0.0496295 0)
(-0.371669 -0.0596898 0)
(-0.370522 -0.0700173 0)
(-0.369154 -0.0805869 0)
(-0.367479 -0.0913493 0)
(-0.365377 -0.102224 0)
(-0.362691 -0.113093 0)
(-0.359225 -0.123792 0)
(-0.354743 -0.134103 0)
(-0.34897 -0.143753 0)
(-0.341604 -0.152411 0)
(-0.332329 -0.159698 0)
(-0.320844 -0.165198 0)
(-0.306894 -0.168486 0)
(-0.290313 -0.16917 0)
(-0.271065 -0.166929 0)
(-0.249287 -0.161572 0)
(-0.225329 -0.153078 0)
(-0.199759 -0.141641 0)
(-0.173347 -0.127677 0)
(-0.146998 -0.111817 0)
(-0.121651 -0.0948422 0)
(-0.0981463 -0.077587 0)
(-0.0770967 -0.0608122 0)
(-0.0588048 -0.045098 0)
(-0.0432536 -0.0307895 0)
(-0.0301837 -0.018016 0)
(-0.0192303 -0.0067767 0)
(-0.0100558 0.00299539 0)
(-0.0024148 0.0113024 0)
(0.00384768 0.0181179 0)
(0.00878652 0.0234043 0)
(0.0124116 0.0271476 0)
(0.0147627 0.0293957 0)
(0.0159179 0.0302771 0)
(0.0160074 0.0299934 0)
(0.0152063 0.0287939 0)
(0.0137154 0.026938 0)
(0.0117417 0.0246543 0)
(0.00948165 0.0221008 0)
(0.00711508 0.0193332 0)
(0.00481184 0.0162868 0)
(0.00273983 0.0127814 0)
(0.00103447 0.00855227 0)
(0.000143487 0.00330357 0)
(0.000177862 -0.00311147 0)
(0.00165051 -0.0102344 0)
(0.00448986 -0.0159971 0)
(0.00747606 -0.0190773 0)
(0.00997006 -0.0191039 0)
(0.0114919 -0.0164843 0)
(0.0118131 -0.0120185 0)
(0.0109204 -0.00656131 0)
(0.00891524 -0.000823291 0)
(0.00592818 0.0047052 0)
(0.00205807 0.00977401 0)
(-0.00265775 0.0143564 0)
(-0.00829503 0.0186129 0)
(-0.015055 0.0228572 0)
(-0.0232406 0.0275194 0)
(-0.0332363 0.0330722 0)
(-0.0454427 0.0399443 0)
(-0.0601891 0.0484251 0)
(-0.0776367 0.0585825 0)
(-0.0976915 0.0702136 0)
(-0.119955 0.0828416 0)
(-0.143744 0.0957761 0)
(-0.168195 0.108236 0)
(-0.192422 0.119499 0)
(-0.215666 0.129031 0)
(-0.237377 0.136523 0)
(-0.257227 0.141875 0)
(-0.275063 0.145136 0)
(-0.290858 0.146447 0)
(-0.304666 0.146 0)
(-0.316589 0.144008 0)
(-0.326758 0.140686 0)
(-0.33532 0.136242 0)
(-0.342432 0.130872 0)
(-0.348252 0.12475 0)
(-0.352937 0.118036 0)
(-0.356639 0.110864 0)
(-0.3595 0.103351 0)
(-0.361653 0.0955913 0)
(-0.363214 0.0876598 0)
(-0.364291 0.0796145 0)
(-0.364973 0.0714967 0)
(-0.365341 0.0633336 0)
(-0.365461 0.0551401 0)
(-0.365387 0.0469208 0)
(-0.365167 0.0386714 0)
(-0.364839 0.0303803 0)
(-0.36444 0.0220301 0)
(-0.364004 0.0135983 0)
(-0.363557 0.00506012 0)
(-0.363115 -0.00361078 0)
(-0.362686 -0.012442 0)
(-0.362285 -0.0214665 0)
(-0.361935 -0.0307143 0)
(-0.361645 -0.0402144 0)
(-0.361423 -0.049991 0)
(-0.361267 -0.0600636 0)
(-0.361163 -0.0704422 0)
(-0.361083 -0.0811247 0)
(-0.360973 -0.0920911 0)
(-0.360754 -0.103298 0)
(-0.360307 -0.114668 0)
(-0.359472 -0.126087 0)
(-0.358033 -0.137386 0)
(-0.355722 -0.14834 0)
(-0.352212 -0.158654 0)
(-0.34713 -0.167969 0)
(-0.340068 -0.175859 0)
(-0.330618 -0.181849 0)
(-0.318405 -0.185444 0)
(-0.303145 -0.186172 0)
(-0.284701 -0.183635 0)
(-0.263138 -0.177579 0)
(-0.23878 -0.167952 0)
(-0.212232 -0.154954 0)
(-0.184371 -0.139067 0)
(-0.156272 -0.121037 0)
(-0.129088 -0.101805 0)
(-0.10388 -0.0823891 0)
(-0.0814431 -0.0637186 0)
(-0.0621805 -0.0464908 0)
(-0.0460865 -0.031095 0)
(-0.0328401 -0.0176405 0)
(-0.0219747 -0.00605726 0)
(-0.013058 0.00378656 0)
(-0.00575282 0.0119923 0)
(0.000156055 0.0185854 0)
(0.00476514 0.0235969 0)
(0.00813266 0.0270663 0)
(0.010319 0.0290881 0)
(0.0114152 0.0298177 0)
(0.0115531 0.0294654 0)
(0.0108985 0.0282664 0)
(0.00963737 0.0264418 0)
(0.00796224 0.0241543 0)
(0.00606322 0.0214685 0)
(0.00412918 0.0183245 0)
(0.00234887 0.0145347 0)
(0.000875045 0.00981265 0)
(0.00011523 0.00382866 0)
(0.000227496 -0.00405738 0)
(0.00189285 -0.0125777 0)
(0.00491814 -0.0189408 0)
(0.00785182 -0.0217835 0)
(0.0100094 -0.0209351 0)
(0.0109368 -0.0171016 0)
(0.0104765 -0.0113396 0)
(0.00868717 -0.00466254 0)
(0.00571234 0.00215863 0)
(0.00169275 0.00864711 0)
(-0.00328857 0.0146286 0)
(-0.00925882 0.0201814 0)
(-0.016381 0.0255809 0)
(-0.0249423 0.0312667 0)
(-0.0353243 0.0377553 0)
(-0.0479389 0.0455422 0)
(-0.0631286 0.0549853 0)
(-0.0810537 0.0661962 0)
(-0.101594 0.0789704 0)
(-0.124299 0.0927821 0)
(-0.148423 0.106861 0)
(-0.173046 0.120343 0)
(-0.197244 0.132443 0)
(-0.220248 0.142593 0)
(-0.241521 0.150482 0)
(-0.260754 0.156025 0)
(-0.27782 0.159293 0)
(-0.292712 0.160456 0)
(-0.305504 0.159733 0)
(-0.316318 0.157362 0)
(-0.325307 0.153586 0)
(-0.332642 0.148638 0)
(-0.338504 0.142735 0)
(-0.343078 0.136075 0)
(-0.346544 0.128834 0)
(-0.349077 0.12116 0)
(-0.350836 0.113182 0)
(-0.351966 0.105 0)
(-0.352595 0.0966949 0)
(-0.352835 0.0883272 0)
(-0.352778 0.0799389 0)
(-0.352502 0.0715569 0)
(-0.352071 0.0631953 0)
(-0.351535 0.0548576 0)
(-0.350933 0.0465384 0)
(-0.350299 0.0382253 0)
(-0.349659 0.0299002 0)
(-0.349037 0.021541 0)
(-0.348456 0.0131235 0)
(-0.347935 0.00462271 0)
(-0.347484 -0.00398735 0)
(-0.347112 -0.0127372 0)
(-0.346837 -0.0216623 0)
(-0.346681 -0.0307933 0)
(-0.346663 -0.040162 0)
(-0.3468 -0.0497963 0)
(-0.347109 -0.0597225 0)
(-0.347599 -0.0699614 0)
(-0.34827 -0.0805271 0)
(-0.349109 -0.0914226 0)
(-0.350081 -0.102635 0)
(-0.35112 -0.11413 0)
(-0.352122 -0.125841 0)
(-0.352932 -0.13766 0)
(-0.353334 -0.149428 0)
(-0.353039 -0.160919 0)
(-0.351687 -0.171833 0)
(-0.348845 -0.181786 0)